################################################################################
# Symmetry function scaling data.
################################################################################
# Col  Name     Description
################################################################################
# 1    e_index  Element index.
# 2    sf_index Symmetry function index.
# 3    sf_min   Symmetry function minimum.
# 4    sf_max   Symmetry function maximum.
# 5    sf_mean  Symmetry function mean.
# 6    sf_sigma Symmetry function sigma.
#########################################################################################################################
#        1          2                        3                        4                        5                        6
#  e_index   sf_index                   sf_min                   sf_max                  sf_mean                 sf_sigma
#########################################################################################################################
         1          1   4.0655164345452043E-02   2.3440696847381456E-01   1.2204049696669059E-01   8.1780002554946492E-03
         1          2   3.8016850704442509E-02   2.2726192798647535E-01   1.1799899947804232E-01   7.8033644001509628E-03
         1          3   3.2766558214798146E-02   2.1215605548327598E-01   1.0953601719353448E-01   7.1212523545839427E-03
         1          4   2.6249702274493379E-02   1.9136332195191708E-01   9.8060192616970798E-02   6.4053887566157368E-03
         1          5   1.3596089099111209E-02   1.4045639494441481E-01   7.0736751422321761E-02   5.3894541327069558E-03
         1          6   3.2629393314245345E-02   2.3075852971368430E-01   1.1844403491470788E-01   7.4673394783646213E-03
         1          7   2.6192551486342301E-02   2.2639270072572143E-01   1.1495670721727577E-01   7.3331087321720206E-03
         1          8   1.7164900346052329E-02   2.1792418105838934E-01   1.0906923204163775E-01   7.9845432516039167E-03
         1          9   7.5429219703062628E-02   8.8452251650933889E-01   2.2618309516318888E-01   6.7286685544805255E-02
         1         10   6.8205589874702363E-02   8.2224711369037284E-01   2.0167338494607956E-01   5.9683392826412301E-02
         1         11   5.4605484566023578E-02   7.0321306645577464E-01   1.5730353552128160E-01   4.6309514874895451E-02
         1         12   3.8219216849517991E-02   5.6355409282453328E-01   1.1002682022624349E-01   3.2821644450874765E-02
         1         13   9.3046596426250155E-03   3.4429087143545645E-01   4.1159749927540144E-02   1.5239497950761040E-02
         1         14   3.9399287240065917E-02   6.8252445152943397E-01   1.2580123680779670E-01   3.7826666802164385E-02
         1         15   1.5643988534098853E-02   5.9368970520659214E-01   7.7804258203225646E-02   2.7359338637251481E-02
         1         16   3.5259911102614255E-01   4.2919943459749890E+00   2.2931831705982644E+00   6.8088984362615845E-01
         1         17   3.5649610384648117E-01   2.4142295729736039E+00   1.3657002063176993E+00   3.5233365709694292E-01
         1         18   2.8208091274908059E-01   3.4148354340121663E+00   1.7507200525477198E+00   5.1640842581280877E-01
         1         19   3.2887712885313825E-01   1.9739705664269973E+00   1.0905100390475972E+00   2.6943118685259149E-01
         1         20   2.0178106352463668E-01   2.2724265568679303E+00   1.0521420506275350E+00   3.0774506194255991E-01
         1         21   2.9495382054136365E-01   1.3767302130213146E+00   7.3422065718600593E-01   1.6413783370489382E-01
         1         22   1.4338775559086042E-01   1.5255510859820938E+00   5.6955522857617158E-01   1.6500610277997940E-01
         1         23   2.5033071278172725E-01   9.1931612122777107E-01   4.8496262046636440E-01   9.2098812327426588E-02
         1         24   4.8649202664357877E-02   6.6418815360267913E-01   1.4583523869648646E-01   4.1795159334435998E-02
         1         25   1.3710137950189893E-01   4.2932757051754988E-01   2.4327694758982904E-01   2.8435931004223841E-02
         1         26   1.5845552020007456E-01   1.6858245285276348E+00   5.4031807063440973E-01   1.5762260720089163E-01
         1         27   3.0408364588379877E-01   1.0010605862988418E+00   5.1302303121264992E-01   9.2952409586443283E-02
         1         28   9.2385869363094550E-02   1.1940070386857746E+00   2.5851743713834618E-01   7.4091704093493624E-02
         1         29   2.5008009988962893E-01   7.2601592755013467E-01   4.0002442552960171E-01   5.5295662641360183E-02
         1         30   1.5708246506807602E-01   6.0804171568482557E-01   3.3307295429439637E-01   2.9959328177877935E-02
         1         31   2.5313390675988723E-04   1.7862199298954527E-02   1.2771466001743192E-03   5.8238734039720691E-04
         1         32   2.5677359315265510E-03   4.8376554843703387E-02   9.3361486660211296E-03   1.8340969095353953E-03
         1         33   1.4913842354659244E-05   9.2102231117108541E-03   2.4549958391425011E-04   3.3493583144304144E-04
         1         34   2.2789681757533061E-03   3.8007957431681956E-02   8.3045016497610390E-03   1.5761165803293193E-03
         1         35   2.0060815865032733E-03   3.0940412478013275E-02   7.4245246361939335E-03   1.3989423090599229E-03
         1         36   1.3032336153739235E-03   7.8245956079540269E-02   9.0201949662255601E-03   4.4119346723339959E-03
         1         37   1.6269286262869567E-02   1.8525258168963626E-01   4.4324890894032055E-02   1.3232642922191149E-02
         1         38   9.4524748842348866E-05   3.8119295712137943E-02   3.4192375222390722E-03   2.3257304749970888E-03
         1         39   1.4685624576240642E-02   1.4512592132223401E-01   3.8723933450045565E-02   1.1092816103861966E-02
         1         40   1.2934077784573559E-02   1.1931557438147049E-01   3.4482631088505265E-02   9.7065066930856776E-03
         1         41   2.9594986380974818E-07   6.8654463334816562E-02   1.9968099786883835E-02   1.1098895482281712E-02
         1         42   4.7222074258663586E-05   1.2767329365033811E-01   3.7161914832377602E-02   2.0323811734733434E-02
         1         43   4.2336432545314657E-06   1.1047311873524868E-01   2.2073234063104057E-02   1.2976757647424843E-02
         1         44   3.0311614448117887E-02   5.4336500188274806E-01   1.9733154007996709E-01   7.3434896283564227E-02
         1         45   2.5643397170953381E-03   1.8338468294962235E-01   2.9649930068193130E-02   1.5224108598494145E-02
         1         46   4.5664874521218213E-07   5.3889373589104589E-02   1.0488208781531031E-02   6.0704387998082856E-03
         1         47   2.8049054067610539E-02   3.9787251996689571E-01   1.1451937169852637E-01   4.0829300706748103E-02
         1         48   2.7819567058409252E-06   5.8306510044047272E-02   9.6947587057360438E-03   5.9401806024195879E-03
         1         49   1.0229364914340936E-03   5.5660551586125290E-02   5.7655426814597543E-03   2.6225415915765494E-03
         1         50   1.3221256481343655E-02   1.3875838525741313E-01   3.1248910630199019E-02   8.0581371914857595E-03
         1         51   2.7524493001165597E-04   1.4953421014523259E-02   2.3725629641374122E-03   4.8179149635086847E-04
         2          1   1.4222616373511957E-01   3.8966352944268956E-01   2.4408099393338117E-01   1.3397823138577170E-02
         2          2   1.3591426871805112E-01   3.7638519013450189E-01   2.3599799895608459E-01   1.2941371815327063E-02
         2          3   1.2295073894078999E-01   3.4855502613735284E-01   2.1907203438706888E-01   1.2069446828854831E-02
         2          4   1.0622375071160849E-01   3.1079950911529586E-01   1.9612038523394135E-01   1.1048328818935072E-02
         2          5   7.0198047627548041E-02   2.2138207702188109E-01   1.4147350284464366E-01   9.0919384583806138E-03
         2          6   1.2930739666943294E-01   3.7701990892895504E-01   2.3688806982941560E-01   1.2865654691022837E-02
         2          7   1.1908408136223517E-01   3.6387977519979581E-01   2.2991341443455129E-01   1.2796079193269338E-02
         2          8   1.0486517864781533E-01   3.4071447184289877E-01   2.1813846408327522E-01   1.3427931765496512E-02
         2          9   7.8879973827563088E-01   4.4766887034494616E+00   2.7314004126353941E+00   6.6373444543491500E-01
         2         10   5.6043521508272923E-02   1.8810088019934819E+00   1.0316641063232095E+00   3.3742646229173551E-01
         2         11   7.0511359252019012E-01   3.6040279932048165E+00   2.1810200780951976E+00   4.9735382127024214E-01
         2         12   2.8908163298065892E-02   1.4440226711582873E+00   7.5678683279161985E-01   2.5222197907763788E-01
         2         13   6.8955366213636418E-03   8.6281022822298670E-01   4.0442552666777754E-01   1.4297548894526912E-01
         2         14   6.8938122629366128E-01   3.2386798041971678E+00   1.9383741327867774E+00   4.1838835185894557E-01
         2         15   5.2702456842913425E-01   1.6695621011650148E+00   9.6992524093272658E-01   1.4946473260022580E-01
         2         16   8.6482689342528445E-04   4.5512332377291065E-01   1.7222713347027269E-01   6.7466576291409674E-02
         2         17   3.3403957994830292E-03   8.8572211082047958E-01   3.8635101387048620E-01   1.4284447066760084E-01
         2         18   1.1509617277567770E-04   2.5719242381017227E-01   7.7080798219984037E-02   3.3403608572423353E-02
         2         19   3.3807286870389419E-01   8.2056519568056641E-01   4.8655389517965841E-01   3.9198095737631285E-02
         2         20   2.2428343704680987E-06   9.2641657484682963E-02   1.6609099428422997E-02   8.7321757287171752E-03
         2         21   1.4523259988894532E-01   3.8470654378997182E-01   2.4740445546419743E-01   1.3626185172887028E-02
         2         22   3.6977674029265085E-02   1.4276624663026943E-01   8.2135713438665950E-02   7.1788386555464963E-03
         2         23   1.6911636422901042E-03   2.0150304915668580E-02   6.3451580737250287E-03   9.8828975527550647E-04
         2         24   1.1008976451958772E-03   3.5186499201488093E-02   4.2681371924704163E-03   1.3106397473348235E-03
         2         25   1.0472086919653411E-03   1.2234286076184542E-02   3.9554248937760409E-03   6.4467850527998949E-04
         2         26   2.9802244500767817E-04   2.4521501055957254E-02   1.8784040125214274E-03   9.5642440529256328E-04
         2         27   6.2100671575494783E-04   8.4332039535786382E-03   2.5139704211133572E-03   4.8178915943436278E-04
         2         28   1.0931744268202656E-02   9.0064272539602003E-02   2.7190833154484617E-02   6.2020841715471004E-03
         2         29   5.0220772539123840E-03   1.5249136158855114E-01   2.6154252705772995E-02   9.4799838473073467E-03
         2         30   4.6400217527492798E-03   5.0266078612203134E-02   1.6491558841849413E-02   3.6028746046518276E-03
         2         31   1.5601809665603753E-03   1.0824447333228716E-01   1.5454978393137791E-02   6.8420354081479085E-03
         2         32   1.9165250420557845E-03   3.3595355854220250E-02   1.0682685278331525E-02   2.4843444580407398E-03
         2         33   3.1673532450123488E-05   9.1634905747429829E-02   2.6526987074134104E-02   1.2510962722135550E-02
         2         34   1.6856784286406137E-16   1.1200289610001012E-02   1.6522492246992696E-03   1.1728570384397332E-03
         2         35   2.5819347933419947E-03   7.7786745737019791E-01   2.8753543279303923E-01   1.2743541162422906E-01
         2         36   4.4394969089132868E-06   8.8485941728672399E-02   2.2257169318630917E-02   1.5357984496082479E-02
         2         37   4.2854589151498203E-03   1.1934305627318768E-01   4.0732435956743328E-02   1.2365908280547669E-02
         2         38   1.6532139574473904E-03   3.7037949484074628E-01   1.1555477983676127E-01   5.3350632226318147E-02
         2         39   1.8584324641057134E-02   2.0221801587429855E-01   6.3778805540694775E-02   1.7915986394596045E-02
         2         40   1.0741285503191522E-05   7.3706054411142391E-02   1.4562830269702056E-02   8.3974745543329236E-03
         2         41   2.9629567645420825E-10   8.4924137939043354E-03   1.0647641965136924E-03   8.8174962394774160E-04
         2         42   9.6087376854134769E-03   3.4627758097539585E-01   8.0390496226024552E-02   3.2439946954072520E-02
         2         43   7.7669427951107878E-05   2.4828267796774967E-01   6.6169039679366312E-02   3.2028896590371489E-02
         2         44   9.7267618763145205E-09   2.1632179603163739E-02   3.0871949844605783E-03   2.5425933972898379E-03
         2         45   7.4268851341631635E-03   6.4410756545276046E-02   1.9821456912549568E-02   3.9548986554791285E-03
         2         46   4.0196568302672733E-03   1.0960478975496954E-01   1.7192996399109244E-02   5.6146499835189601E-03
