J:\n2p2\new\7\lammps\opt_12G-(7-7-1)-7.0A.lammps (written by ASE) 

588 	 atoms 
2  atom types
0.0                 17.4405  xlo xhi
0.0      28.482300000000002  ylo yhi
0.0                      30  zlo zhi


Atoms 

     1   1    0.077983949999999705     0.81764545499999985      4.5716000000000001
     2   1      2.4135160500000006     0.81764545499999985      2.4283999999999999
     3   1      2.4135160500000006      3.2512545450000001      2.4283999999999999
     4   1    0.077983949999999705      3.2512545450000001      4.5716000000000001
     5   1      1.2457499999999999      2.0344500000000001                     3.5
     6   1      1.1839358849999988      2.0344500000000001                  1.7759
     7   1       1.307564115000001      2.0344500000000001                  5.2241
     8   2     0.59203022999999921      2.0344500000000001      2.5400000000000009
     9   2      1.8994697700000005      2.0344500000000001      4.4600000000000009
    10   1      1.2457499999999999                       0                     3.5
    11   2      1.8303306450000001                       0      2.5175000000000001
    12   2     0.66116935499999963                       0      4.4825000000000017
    13   1    0.077983949999999705      4.8865454550000003      4.5716000000000001
    14   1      2.4135160500000006      4.8865454550000003      2.4283999999999999
    15   1      2.4135160500000006      7.3201545450000012      2.4283999999999999
    16   1    0.077983949999999705      7.3201545450000012      4.5716000000000001
    17   1      1.2457499999999999      6.1033500000000007                     3.5
    18   1      1.1839358849999988      6.1033500000000007                  1.7759
    19   1       1.307564115000001      6.1033500000000007                  5.2241
    20   2     0.59203022999999921      6.1033500000000007      2.5400000000000009
    21   2      1.8994697700000005      6.1033500000000007      4.4600000000000009
    22   1      1.2457499999999999      4.0689000000000002                     3.5
    23   2      1.8303306450000001      4.0689000000000002      2.5175000000000001
    24   2     0.66116935499999963      4.0689000000000002      4.4825000000000017
    25   1    0.077983949999999705      8.9554454549999996      4.5716000000000001
    26   1      2.4135160500000006      8.9554454549999996      2.4283999999999999
    27   1      2.4135160500000006            11.389054545      2.4283999999999999
    28   1    0.077983949999999705            11.389054545      4.5716000000000001
    29   1      1.2457499999999999                10.17225                     3.5
    30   1      1.1839358849999988                10.17225                  1.7759
    31   1       1.307564115000001                10.17225                  5.2241
    32   2     0.59203022999999921                10.17225      2.5400000000000009
    33   2      1.8994697700000005                10.17225      4.4600000000000009
    34   1      1.2457499999999999      8.1378000000000004                     3.5
    35   2      1.8303306450000001      8.1378000000000004      2.5175000000000001
    36   2     0.66116935499999963      8.1378000000000004      4.4825000000000017
    37   1    0.077983949999999705      13.024345455000001      4.5716000000000001
    38   1      2.4135160500000006      13.024345455000001      2.4283999999999999
    39   1      2.4135160500000006      15.457954545000002      2.4283999999999999
    40   1    0.077983949999999705      15.457954545000002      4.5716000000000001
    41   1      1.2457499999999999      14.241150000000001                     3.5
    42   1      1.1839358849999988      14.241150000000001                  1.7759
    43   1       1.307564115000001      14.241150000000001                  5.2241
    44   2     0.59203022999999921      14.241150000000001      2.5400000000000009
    45   2      1.8994697700000005      14.241150000000001      4.4600000000000009
    46   1      1.2457499999999999      12.206700000000001                     3.5
    47   2      1.8303306450000001      12.206700000000001      2.5175000000000001
    48   2     0.66116935499999963      12.206700000000001      4.4825000000000017
    49   1    0.077983949999999705      17.093245455000002      4.5716000000000001
    50   1      2.4135160500000006      17.093245455000002      2.4283999999999999
    51   1      2.4135160500000006      19.526854544999999      2.4283999999999999
    52   1    0.077983949999999705      19.526854544999999      4.5716000000000001
    53   1      1.2457499999999999                18.31005                     3.5
    54   1      1.1839358849999988                18.31005                  1.7759
    55   1       1.307564115000001                18.31005                  5.2241
    56   2     0.59203022999999921                18.31005      2.5400000000000009
    57   2      1.8994697700000005                18.31005      4.4600000000000009
    58   1      1.2457499999999999      16.275600000000001                     3.5
    59   2      1.8303306450000001      16.275600000000001      2.5175000000000001
    60   2     0.66116935499999963      16.275600000000001      4.4825000000000017
    61   1    0.077983949999999705      21.162145455000001      4.5716000000000001
    62   1      2.4135160500000006      21.162145455000001      2.4283999999999999
    63   1      2.4135160500000006      23.595754544999998      2.4283999999999999
    64   1    0.077983949999999705      23.595754544999998      4.5716000000000001
    65   1      1.2457499999999999                22.37895                     3.5
    66   1      1.1839358849999988                22.37895                  1.7759
    67   1       1.307564115000001                22.37895                  5.2241
    68   2     0.59203022999999921                22.37895      2.5400000000000009
    69   2      1.8994697700000005                22.37895      4.4600000000000009
    70   1      1.2457499999999999                 20.3445                     3.5
    71   2      1.8303306450000001                 20.3445      2.5175000000000001
    72   2     0.66116935499999963                 20.3445      4.4825000000000017
    73   1    0.077983949999999705      25.231045455000004      4.5716000000000001
    74   1      2.4135160500000006      25.231045455000004      2.4283999999999999
    75   1      2.4135160500000006      27.664654545000005      2.4283999999999999
    76   1    0.077983949999999705      27.664654545000005      4.5716000000000001
    77   1      1.2457499999999999      26.447850000000003                     3.5
    78   1      1.1839358849999988      26.447850000000003                  1.7759
    79   1       1.307564115000001      26.447850000000003                  5.2241
    80   2     0.59203022999999921      26.447850000000003      2.5400000000000009
    81   2      1.8994697700000005      26.447850000000003      4.4600000000000009
    82   1      1.2457499999999999      24.413400000000003                     3.5
    83   2      1.8303306450000001      24.413400000000003      2.5175000000000001
    84   2     0.66116935499999963      24.413400000000003      4.4825000000000017
    85   1      2.5694839499999995     0.81764545499999985      4.5716000000000001
    86   1      4.9050160500000004     0.81764545499999985      2.4283999999999999
    87   1      4.9050160500000004      3.2512545450000001      2.4283999999999999
    88   1      2.5694839499999995      3.2512545450000001      4.5716000000000001
    89   1      3.7372499999999995      2.0344500000000001                     3.5
    90   1      3.6754358849999988      2.0344500000000001                  1.7759
    91   1      3.7990641150000011      2.0344500000000001                  5.2241
    92   2      3.0835302299999992      2.0344500000000001      2.5400000000000009
    93   2      4.3909697699999999      2.0344500000000001      4.4600000000000009
    94   1      3.7372499999999995                       0                     3.5
    95   2      4.3218306450000004                       0      2.5175000000000001
    96   2      3.1526693549999996                       0      4.4825000000000017
    97   1      2.5694839499999995      4.8865454550000003      4.5716000000000001
    98   1      4.9050160500000004      4.8865454550000003      2.4283999999999999
    99   1      4.9050160500000004      7.3201545450000012      2.4283999999999999
   100   1      2.5694839499999995      7.3201545450000012      4.5716000000000001
   101   1      3.7372499999999995      6.1033500000000007                     3.5
   102   1      3.6754358849999988      6.1033500000000007                  1.7759
   103   1      3.7990641150000011      6.1033500000000007                  5.2241
   104   2      3.0835302299999992      6.1033500000000007      2.5400000000000009
   105   2      4.3909697699999999      6.1033500000000007      4.4600000000000009
   106   1      3.7372499999999995      4.0689000000000002                     3.5
   107   2      4.3218306450000004      4.0689000000000002      2.5175000000000001
   108   2      3.1526693549999996      4.0689000000000002      4.4825000000000017
   109   1      2.5694839499999995      8.9554454549999996      4.5716000000000001
   110   1      4.9050160500000004      8.9554454549999996      2.4283999999999999
   111   1      4.9050160500000004            11.389054545      2.4283999999999999
   112   1      2.5694839499999995            11.389054545      4.5716000000000001
   113   1      3.7372499999999995                10.17225                     3.5
   114   1      3.6754358849999988                10.17225                  1.7759
   115   1      3.7990641150000011                10.17225                  5.2241
   116   2      3.0835302299999992                10.17225      2.5400000000000009
   117   2      4.3909697699999999                10.17225      4.4600000000000009
   118   1      3.7372499999999995      8.1378000000000004                     3.5
   119   2      4.3218306450000004      8.1378000000000004      2.5175000000000001
   120   2      3.1526693549999996      8.1378000000000004      4.4825000000000017
   121   1      2.5694839499999995      13.024345455000001      4.5716000000000001
   122   1      4.9050160500000004      13.024345455000001      2.4283999999999999
   123   1      4.9050160500000004      15.457954545000002      2.4283999999999999
   124   1      2.5694839499999995      15.457954545000002      4.5716000000000001
   125   1      3.7372499999999995      14.241150000000001                     3.5
   126   1      3.6754358849999988      14.241150000000001                  1.7759
   127   1      3.7990641150000011      14.241150000000001                  5.2241
   128   2      3.0835302299999992      14.241150000000001      2.5400000000000009
   129   2      4.3909697699999999      14.241150000000001      4.4600000000000009
   130   1      3.7372499999999995      12.206700000000001                     3.5
   131   2      4.3218306450000004      12.206700000000001      2.5175000000000001
   132   2      3.1526693549999996      12.206700000000001      4.4825000000000017
   133   1      2.5694839499999995      17.093245455000002      4.5716000000000001
   134   1      4.9050160500000004      17.093245455000002      2.4283999999999999
   135   1      4.9050160500000004      19.526854544999999      2.4283999999999999
   136   1      2.5694839499999995      19.526854544999999      4.5716000000000001
   137   1      3.7372499999999995                18.31005                     3.5
   138   1      3.6754358849999988                18.31005                  1.7759
   139   1      3.7990641150000011                18.31005                  5.2241
   140   2      3.0835302299999992                18.31005      2.5400000000000009
   141   2      4.3909697699999999                18.31005      4.4600000000000009
   142   1      3.7372499999999995      16.275600000000001                     3.5
   143   2      4.3218306450000004      16.275600000000001      2.5175000000000001
   144   2      3.1526693549999996      16.275600000000001      4.4825000000000017
   145   1      2.5694839499999995      21.162145455000001      4.5716000000000001
   146   1      4.9050160500000004      21.162145455000001      2.4283999999999999
   147   1      4.9050160500000004      23.595754544999998      2.4283999999999999
   148   1      2.5694839499999995      23.595754544999998      4.5716000000000001
   149   1      3.7372499999999995                22.37895                     3.5
   150   1      3.6754358849999988                22.37895                  1.7759
   151   1      3.7990641150000011                22.37895                  5.2241
   152   2      3.0835302299999992                22.37895      2.5400000000000009
   153   2      4.3909697699999999                22.37895      4.4600000000000009
   154   1      3.7372499999999995                 20.3445                     3.5
   155   2      4.3218306450000004                 20.3445      2.5175000000000001
   156   2      3.1526693549999996                 20.3445      4.4825000000000017
   157   1      2.5694839499999995      25.231045455000004      4.5716000000000001
   158   1      4.9050160500000004      25.231045455000004      2.4283999999999999
   159   1      4.9050160500000004      27.664654545000005      2.4283999999999999
   160   1      2.5694839499999995      27.664654545000005      4.5716000000000001
   161   1      3.7372499999999995      26.447850000000003                     3.5
   162   1      3.6754358849999988      26.447850000000003                  1.7759
   163   1      3.7990641150000011      26.447850000000003                  5.2241
   164   2      3.0835302299999992      26.447850000000003      2.5400000000000009
   165   2      4.3909697699999999      26.447850000000003      4.4600000000000009
   166   1      3.7372499999999995      24.413400000000003                     3.5
   167   2      4.3218306450000004      24.413400000000003      2.5175000000000001
   168   2      3.1526693549999996      24.413400000000003      4.4825000000000017
   169   1      5.0609839499999998     0.81764545499999985      4.5716000000000001
   170   1      7.3965160499999998     0.81764545499999985      2.4283999999999999
   171   1      7.3965160499999998      3.2512545450000001      2.4283999999999999
   172   1      5.0609839499999998      3.2512545450000001      4.5716000000000001
   173   1      6.2287499999999998      2.0344500000000001                     3.5
   174   1      6.1669358849999982      2.0344500000000001                  1.7759
   175   1      6.2905641150000005      2.0344500000000001                  5.2241
   176   2      5.5750302299999985      2.0344500000000001      2.5400000000000009
   177   2      6.8824697700000002      2.0344500000000001      4.4600000000000009
   178   1      6.2287499999999998                       0                     3.5
   179   2      6.8133306449999997                       0      2.5175000000000001
   180   2      5.6441693549999989                       0      4.4825000000000017
   181   1      5.0609839499999998      4.8865454550000003      4.5716000000000001
   182   1      7.3965160499999998      4.8865454550000003      2.4283999999999999
   183   1      7.3965160499999998      7.3201545450000012      2.4283999999999999
   184   1      5.0609839499999998      7.3201545450000012      4.5716000000000001
   185   1      6.2287499999999998      6.1033500000000007                     3.5
   186   1      6.1669358849999982      6.1033500000000007                  1.7759
   187   1      6.2905641150000005      6.1033500000000007                  5.2241
   188   2      5.5750302299999985      6.1033500000000007      2.5400000000000009
   189   2      6.8824697700000002      6.1033500000000007      4.4600000000000009
   190   1      6.2287499999999998      4.0689000000000002                     3.5
   191   2      6.8133306449999997      4.0689000000000002      2.5175000000000001
   192   2      5.6441693549999989      4.0689000000000002      4.4825000000000017
   193   1      5.0609839499999998      8.9554454549999996      4.5716000000000001
   194   1      7.3965160499999998      8.9554454549999996      2.4283999999999999
   195   1      7.3965160499999998            11.389054545      2.4283999999999999
   196   1      5.0609839499999998            11.389054545      4.5716000000000001
   197   1      6.2287499999999998                10.17225                     3.5
   198   1      6.1669358849999982                10.17225                  1.7759
   199   1      6.2905641150000005                10.17225                  5.2241
   200   2      5.5750302299999985                10.17225      2.5400000000000009
   201   2      6.8824697700000002                10.17225      4.4600000000000009
   202   1      6.2287499999999998      8.1378000000000004                     3.5
   203   2      6.8133306449999997      8.1378000000000004      2.5175000000000001
   204   2      5.6441693549999989      8.1378000000000004      4.4825000000000017
   205   1      5.0609839499999998      13.024345455000001      4.5716000000000001
   206   1      7.3965160499999998      13.024345455000001      2.4283999999999999
   207   1      7.3965160499999998      15.457954545000002      2.4283999999999999
   208   1      5.0609839499999998      15.457954545000002      4.5716000000000001
   209   1      6.2287499999999998      14.241150000000001                     3.5
   210   1      6.1669358849999982      14.241150000000001                  1.7759
   211   1      6.2905641150000005      14.241150000000001                  5.2241
   212   2      5.5750302299999985      14.241150000000001      2.5400000000000009
   213   2      6.8824697700000002      14.241150000000001      4.4600000000000009
   214   1      6.2287499999999998      12.206700000000001                     3.5
   215   2      6.8133306449999997      12.206700000000001      2.5175000000000001
   216   2      5.6441693549999989      12.206700000000001      4.4825000000000017
   217   1      5.0609839499999998      17.093245455000002      4.5716000000000001
   218   1      7.3965160499999998      17.093245455000002      2.4283999999999999
   219   1      7.3965160499999998      19.526854544999999      2.4283999999999999
   220   1      5.0609839499999998      19.526854544999999      4.5716000000000001
   221   1      6.2287499999999998                18.31005                     3.5
   222   1      6.1669358849999982                18.31005                  1.7759
   223   1      6.2905641150000005                18.31005                  5.2241
   224   2      5.5750302299999985                18.31005      2.5400000000000009
   225   2      6.8824697700000002                18.31005      4.4600000000000009
   226   1      6.2287499999999998      16.275600000000001                     3.5
   227   2      6.8133306449999997      16.275600000000001      2.5175000000000001
   228   2      5.6441693549999989      16.275600000000001      4.4825000000000017
   229   1      5.0609839499999998      21.162145455000001      4.5716000000000001
   230   1      7.3965160499999998      21.162145455000001      2.4283999999999999
   231   1      7.3965160499999998      23.595754544999998      2.4283999999999999
   232   1      5.0609839499999998      23.595754544999998      4.5716000000000001
   233   1      6.2287499999999998                22.37895                     3.5
   234   1      6.1669358849999982                22.37895                  1.7759
   235   1      6.2905641150000005                22.37895                  5.2241
   236   2      5.5750302299999985                22.37895      2.5400000000000009
   237   2      6.8824697700000002                22.37895      4.4600000000000009
   238   1      6.2287499999999998                 20.3445                     3.5
   239   2      6.8133306449999997                 20.3445      2.5175000000000001
   240   2      5.6441693549999989                 20.3445      4.4825000000000017
   241   1      5.0609839499999998      25.231045455000004      4.5716000000000001
   242   1      7.3965160499999998      25.231045455000004      2.4283999999999999
   243   1      7.3965160499999998      27.664654545000005      2.4283999999999999
   244   1      5.0609839499999998      27.664654545000005      4.5716000000000001
   245   1      6.2287499999999998      26.447850000000003                     3.5
   246   1      6.1669358849999982      26.447850000000003                  1.7759
   247   1      6.2905641150000005      26.447850000000003                  5.2241
   248   2      5.5750302299999985      26.447850000000003      2.5400000000000009
   249   2      6.8824697700000002      26.447850000000003      4.4600000000000009
   250   1      6.2287499999999998      24.413400000000003                     3.5
   251   2      6.8133306449999997      24.413400000000003      2.5175000000000001
   252   2      5.6441693549999989      24.413400000000003      4.4825000000000017
   253   1      7.5524839500000001     0.81764545499999985      4.5716000000000001
   254   1      9.8880160499999992     0.81764545499999985      2.4283999999999999
   255   1      9.8880160499999992      3.2512545450000001      2.4283999999999999
   256   1      7.5524839500000001      3.2512545450000001      4.5716000000000001
   257   1      8.7202499999999983      2.0344500000000001                     3.5
   258   1      8.6584358849999976      2.0344500000000001                  1.7759
   259   1      8.7820641150000007      2.0344500000000001                  5.2241
   260   2      8.0665302299999979      2.0344500000000001      2.5400000000000009
   261   2      9.3739697699999986      2.0344500000000001      4.4600000000000009
   262   1      8.7202499999999983                       0                     3.5
   263   2      9.3048306449999991                       0      2.5175000000000001
   264   2      8.1356693549999992                       0      4.4825000000000017
   265   1      7.5524839500000001      4.8865454550000003      4.5716000000000001
   266   1      9.8880160499999992      4.8865454550000003      2.4283999999999999
   267   1      9.8880160499999992      7.3201545450000012      2.4283999999999999
   268   1      7.5524839500000001      7.3201545450000012      4.5716000000000001
   269   1      8.7202499999999983      6.1033500000000007                     3.5
   270   1      8.6584358849999976      6.1033500000000007                  1.7759
   271   1      8.7820641150000007      6.1033500000000007                  5.2241
   272   2      8.0665302299999979      6.1033500000000007      2.5400000000000009
   273   2      9.3739697699999986      6.1033500000000007      4.4600000000000009
   274   1      8.7202499999999983      4.0689000000000002                     3.5
   275   2      9.3048306449999991      4.0689000000000002      2.5175000000000001
   276   2      8.1356693549999992      4.0689000000000002      4.4825000000000017
   277   1      7.5524839500000001      8.9554454549999996      4.5716000000000001
   278   1      9.8880160499999992      8.9554454549999996      2.4283999999999999
   279   1      9.8880160499999992            11.389054545      2.4283999999999999
   280   1      7.5524839500000001            11.389054545      4.5716000000000001
   281   1      8.7202499999999983                10.17225                     3.5
   282   1      8.6584358849999976                10.17225                  1.7759
   283   1      8.7820641150000007                10.17225                  5.2241
   284   2      8.0665302299999979                10.17225      2.5400000000000009
   285   2      9.3739697699999986                10.17225      4.4600000000000009
   286   1      8.7202499999999983      8.1378000000000004                     3.5
   287   2      9.3048306449999991      8.1378000000000004      2.5175000000000001
   288   2      8.1356693549999992      8.1378000000000004      4.4825000000000017
   289   1      7.5524839500000001      13.024345455000001      4.5716000000000001
   290   1      9.8880160499999992      13.024345455000001      2.4283999999999999
   291   1      9.8880160499999992      15.457954545000002      2.4283999999999999
   292   1      7.5524839500000001      15.457954545000002      4.5716000000000001
   293   1      8.7202499999999983      14.241150000000001                     3.5
   294   1      8.6584358849999976      14.241150000000001                  1.7759
   295   1      8.7820641150000007      14.241150000000001                  5.2241
   296   2      8.0665302299999979      14.241150000000001      2.5400000000000009
   297   2      9.3739697699999986      14.241150000000001      4.4600000000000009
   298   1      8.7202499999999983      12.206700000000001                     3.5
   299   2      9.3048306449999991      12.206700000000001      2.5175000000000001
   300   2      8.1356693549999992      12.206700000000001      4.4825000000000017
   301   1      7.5524839500000001      17.093245455000002      4.5716000000000001
   302   1      9.8880160499999992      17.093245455000002      2.4283999999999999
   303   1      9.8880160499999992      19.526854544999999      2.4283999999999999
   304   1      7.5524839500000001      19.526854544999999      4.5716000000000001
   305   1      8.7202499999999983                18.31005                     3.5
   306   1      8.6584358849999976                18.31005                  1.7759
   307   1      8.7820641150000007                18.31005                  5.2241
   308   2      8.0665302299999979                18.31005      2.5400000000000009
   309   2      9.3739697699999986                18.31005      4.4600000000000009
   310   1      8.7202499999999983      16.275600000000001                     3.5
   311   2      9.3048306449999991      16.275600000000001      2.5175000000000001
   312   2      8.1356693549999992      16.275600000000001      4.4825000000000017
   313   1      7.5524839500000001      21.162145455000001      4.5716000000000001
   314   1      9.8880160499999992      21.162145455000001      2.4283999999999999
   315   1      9.8880160499999992      23.595754544999998      2.4283999999999999
   316   1      7.5524839500000001      23.595754544999998      4.5716000000000001
   317   1      8.7202499999999983                22.37895                     3.5
   318   1      8.6584358849999976                22.37895                  1.7759
   319   1      8.7820641150000007                22.37895                  5.2241
   320   2      8.0665302299999979                22.37895      2.5400000000000009
   321   2      9.3739697699999986                22.37895      4.4600000000000009
   322   1      8.7202499999999983                 20.3445                     3.5
   323   2      9.3048306449999991                 20.3445      2.5175000000000001
   324   2      8.1356693549999992                 20.3445      4.4825000000000017
   325   1      7.5524839500000001      25.231045455000004      4.5716000000000001
   326   1      9.8880160499999992      25.231045455000004      2.4283999999999999
   327   1      9.8880160499999992      27.664654545000005      2.4283999999999999
   328   1      7.5524839500000001      27.664654545000005      4.5716000000000001
   329   1      8.7202499999999983      26.447850000000003                     3.5
   330   1      8.6584358849999976      26.447850000000003                  1.7759
   331   1      8.7820641150000007      26.447850000000003                  5.2241
   332   2      8.0665302299999979      26.447850000000003      2.5400000000000009
   333   2      9.3739697699999986      26.447850000000003      4.4600000000000009
   334   1      8.7202499999999983      24.413400000000003                     3.5
   335   2      9.3048306449999991      24.413400000000003      2.5175000000000001
   336   2      8.1356693549999992      24.413400000000003      4.4825000000000017
   337   1      10.043983949999999     0.81764545499999985      4.5716000000000001
   338   1      12.379516050000001     0.81764545499999985      2.4283999999999999
   339   1      12.379516050000001      3.2512545450000001      2.4283999999999999
   340   1      10.043983949999999      3.2512545450000001      4.5716000000000001
   341   1      11.211749999999999      2.0344500000000001                     3.5
   342   1      11.149935884999998      2.0344500000000001                  1.7759
   343   1      11.273564115000003      2.0344500000000001                  5.2241
   344   2      10.558030229999998      2.0344500000000001      2.5400000000000009
   345   2      11.865469770000001      2.0344500000000001      4.4600000000000009
   346   1      11.211749999999999                       0                     3.5
   347   2      11.796330645000001                       0      2.5175000000000001
   348   2      10.627169354999999                       0      4.4825000000000017
   349   1      10.043983949999999      4.8865454550000003      4.5716000000000001
   350   1      12.379516050000001      4.8865454550000003      2.4283999999999999
   351   1      12.379516050000001      7.3201545450000012      2.4283999999999999
   352   1      10.043983949999999      7.3201545450000012      4.5716000000000001
   353   1      11.211749999999999      6.1033500000000007                     3.5
   354   1      11.149935884999998      6.1033500000000007                  1.7759