J:\n2p2\new\8\lammps\opt_VII2-(7-7-1)-8.0A.lammps (written by ASE) 

588 	 atoms 
2  atom types
0.0      19.575499999999998  xlo xhi
0.0      31.960475174985369  ylo yhi
0.0                      30  zlo zhi
   -0.73823274727140986                       0                       0  xy xz yz


Atoms 

     1   1      2.5310157155822401     0.84197588957415015      5.2291749999999908
     2   1      2.5233584808376857      1.5960148145954127      2.8051749999999842
     3   1      1.1162947174996847      2.4267588800366391      4.3252749999999907
     4   1     0.81887413216524374      2.5253797748623081      2.1505749999999892
     5   1       1.063409736217777      2.3542542592111007      5.8687749999999923
     6   1      1.1759170768724261     0.17482379920716967       3.685974999999992
     7   1      2.1545154172418997       4.059117320688177      2.7712749999999886
     8   1        2.48574536803542      3.8660760506312655      5.2204749999999933
     9   2      1.6759528297169501     0.27801047620069469      2.8357749999999911
    10   2     0.36636032821187348    0.097251160175313073      5.1514749999999907
    11   2     0.17612200134390815      2.5013637606593906      2.8786749999999905
    12   2      1.6954723644033223      2.3773571169804479      5.1340749999999922
    13   1      2.4255538945434671       5.407758057429203      5.2291749999999908
    14   1      2.4178966597989127      6.1617969824504648      2.8051749999999842
    15   1      1.0108328964609119      6.9925410478916916      4.3252749999999907
    16   1     0.71341231112647074      7.0911619427173616      2.1505749999999892
    17   1     0.95794791517900435      6.9200364270661545      5.8687749999999923
    18   1      1.0704552558336533      4.7406059670622227       3.685974999999992
    19   1      2.0490535962031267        8.62489948854323      2.7712749999999886
    20   1       2.380283546996647      8.4318582184863189      5.2204749999999933
    21   2      1.5704910086781774      4.8437926440557479      2.8357749999999911
    22   2     0.26089850717310065      4.6630333280303651      5.1514749999999907
    23   2    0.070660180305135323       7.067145928514444      2.8786749999999905
    24   2      1.5900105433645493      6.9431392848355014      5.1340749999999922
    25   1      2.3200920735046946      9.9735402252842569      5.2291749999999908
    26   1      2.3124348387601406      10.727579150305518      2.8051749999999842
    27   1     0.90537107542213902      11.558323215746745      4.3252749999999907
    28   1     0.60795049008769808      11.656944110572413      2.1505749999999892
    29   1     0.85248609414023147      11.485818594921207      5.8687749999999923
    30   1     0.96499343479488053      9.3063881349172757       3.685974999999992
    31   1      1.9435917751643541      13.190681656398283      2.7712749999999886
    32   1      2.2748217259578745      12.997640386341372      5.2204749999999933
    33   2      1.4650291876394044      9.4095748119108009      2.8357749999999911
    34   2     0.15543668613432784      9.2288154958854189      5.1514749999999907
    35   2   -0.034801640733637479      11.632928096369495      2.8786749999999905
    36   2      1.4845487223257765      11.508921452690554      5.1340749999999922
    37   1      2.2146302524659216       14.53932239313931      5.2291749999999908
    38   1      2.2069730177213671      15.293361318160571      2.8051749999999842
    39   1     0.79990925438336613      16.124105383601798      4.3252749999999907
    40   1     0.50248866904892531      16.222726278427466      2.1505749999999892
    41   1     0.74702427310145847       16.05160076277626      5.8687749999999923
    42   1     0.85953161375610754      13.872170302772329       3.685974999999992
    43   1      1.8381299541255811      17.756463824253334      2.7712749999999886
    44   1      2.1693599049191015      17.563422554196425      5.2204749999999933
    45   2      1.3595673666006314      13.975356979765854      2.8357749999999911
    46   2    0.049974865095554988      13.794597663740472      5.1514749999999907
    47   2    -0.14026346177241031      16.198710264224548      2.8786749999999905
    48   2      1.3790869012870037      16.074703620545606      5.1340749999999922
    49   1      2.1091684314271486      19.105104560994363      5.2291749999999908
    50   1       2.101511196682595      19.859143486015622      2.8051749999999842
    51   1     0.69444743334459336      20.689887551456852      4.3252749999999907
    52   1     0.39702684801015242      20.788508446282517      2.1505749999999892
    53   1      0.6415624520626857      20.617382930631308      5.8687749999999923
    54   1     0.75406979271733465       18.43795247062738       3.685974999999992
    55   1      1.7326681330868083      22.322245992108389      2.7712749999999886
    56   1      2.0638980838803285      22.129204722051476      5.2204749999999933
    57   2      1.2541055455618588      18.541139147620907      2.8357749999999911
    58   2   -0.055486955943217842      18.360379831595527      5.1514749999999907
    59   2    -0.24572528281118314      20.764492432079603      2.8786749999999905
    60   2      1.2736250802482307       20.64048578840066      5.1340749999999922
    61   1      2.0037066103883761      23.670886728849418      5.2291749999999908
    62   1       1.996049375643822       24.42492565387068      2.8051749999999842
    63   1     0.58898561230582069      25.255669719311904      4.3252749999999907
    64   1     0.29156502697137954      25.354290614137575      2.1505749999999892
    65   1     0.53610063102391303      25.183165098486363      5.8687749999999923
    66   1     0.64860797167856199      23.003734638482435       3.685974999999992
    67   1      1.6272063120480356      26.888028159963444      2.7712749999999886
    68   1      1.9584362628415559      26.694986889906531      5.2204749999999933
    69   2      1.1486437245230863      23.106921315475962      2.8357749999999911
    70   2    -0.16094877698199062      22.926161999450581      5.1514749999999907
    71   2    -0.35118710384995594      25.330274599934658      2.8786749999999905
    72   2       1.168163259209458      25.206267956255715      5.1340749999999922
    73   1      1.8982447893496031      28.236668896704469      5.2291749999999908
    74   1      1.8905875546050483      28.990707821725731      2.8051749999999842
    75   1     0.48352379126704781      29.821451887166958      4.3252749999999907
    76   1     0.18610320593260665      29.920072781992626      2.1505749999999892
    77   1     0.43063880998514015      29.748947266341418      5.8687749999999923
    78   1     0.54314615063978899      27.569516806337482       3.685974999999992
    79   1      1.5217444910092626      31.453810327818495      2.7712749999999886
    80   1      1.8529744418027827      31.260769057761582      5.2204749999999933
    81   2      1.0431819034843133      27.672703483331013      2.8357749999999911
    82   2     -0.2664105980207635      27.491944167305629      5.1514749999999907
    83   2    -0.45664892488872877      29.896056767789709      2.8786749999999905
    84   2      1.0627014381706852      29.772050124110766      5.1340749999999922
    85   1      5.3275157155822406     0.84197588957415015      5.2291749999999908
    86   1      5.3198584808376861      1.5960148145954127      2.8051749999999842
    87   1      3.9127947174996844      2.4267588800366391      4.3252749999999907
    88   1      3.6153741321652437      2.5253797748623081      2.1505749999999892
    89   1       3.859909736217777      2.3542542592111007      5.8687749999999923
    90   1      3.9724170768724258     0.17482379920716967       3.685974999999992
    91   1      4.9510154172419005       4.059117320688177      2.7712749999999886
    92   1      5.2822453680354204      3.8660760506312655      5.2204749999999933
    93   2      4.4724528297169499     0.27801047620069469      2.8357749999999911
    94   2      3.1628603282118735    0.097251160175313073      5.1514749999999907
    95   2       2.972622001343908      2.5013637606593906      2.8786749999999905
    96   2      4.4919723644033223      2.3773571169804479      5.1340749999999922
    97   1      5.2220538945434676       5.407758057429203      5.2291749999999908
    98   1      5.2143966597989131      6.1617969824504648      2.8051749999999842
    99   1      3.8073328964609114      6.9925410478916916      4.3252749999999907
   100   1      3.5099123111264707      7.0911619427173616      2.1505749999999892
   101   1       3.754447915179004      6.9200364270661545      5.8687749999999923
   102   1      3.8669552558336528      4.7406059670622227       3.685974999999992
   103   1      4.8455535962031275        8.62489948854323      2.7712749999999886
   104   1      5.1767835469966474      8.4318582184863189      5.2204749999999933
   105   2      4.3669910086781769      4.8437926440557479      2.8357749999999911
   106   2      3.0573985071731005      4.6630333280303651      5.1514749999999907
   107   2       2.867160180305135       7.067145928514444      2.8786749999999905
   108   2      4.3865105433645493      6.9431392848355014      5.1340749999999922
   109   1      5.1165920735046946      9.9735402252842569      5.2291749999999908
   110   1      5.1089348387601401      10.727579150305518      2.8051749999999842
   111   1      3.7018710754221398      11.558323215746745      4.3252749999999907
   112   1      3.4044504900876982      11.656944110572413      2.1505749999999892
   113   1      3.6489860941402315      11.485818594921207      5.8687749999999923
   114   1      3.7614934347948807      9.3063881349172757       3.685974999999992
   115   1      4.7400917751643545      13.190681656398283      2.7712749999999886
   116   1      5.0713217259578744      12.997640386341372      5.2204749999999933
   117   2      4.2615291876394048      9.4095748119108009      2.8357749999999911
   118   2      2.9519366861343279      9.2288154958854189      5.1514749999999907
   119   2      2.7616983592663624      11.632928096369495      2.8786749999999905
   120   2      4.2810487223257763      11.508921452690554      5.1340749999999922
   121   1      5.0111302524659216       14.53932239313931      5.2291749999999908
   122   1      5.0034730177213671      15.293361318160571      2.8051749999999842
   123   1      3.5964092543833668      16.124105383601798      4.3252749999999907
   124   1      3.2989886690489252      16.222726278427466      2.1505749999999892
   125   1      3.5435242731014585       16.05160076277626      5.8687749999999923
   126   1      3.6560316137561077      13.872170302772329       3.685974999999992
   127   1      4.6346299541255815      17.756463824253334      2.7712749999999886
   128   1      4.9658599049191015      17.563422554196425      5.2204749999999933
   129   2      4.1560673666006318      13.975356979765854      2.8357749999999911
   130   2      2.8464748650955549      13.794597663740472      5.1514749999999907
   131   2      2.6562365382275894      16.198710264224548      2.8786749999999905
   132   2      4.1755869012870033      16.074703620545606      5.1340749999999922
   133   1      4.9056684314271486      19.105104560994363      5.2291749999999908
   134   1      4.8980111966825941      19.859143486015622      2.8051749999999842
   135   1      3.4909474333445938      20.689887551456852      4.3252749999999907
   136   1      3.1935268480101522      20.788508446282517      2.1505749999999892
   137   1      3.4380624520626859      20.617382930631308      5.8687749999999923
   138   1      3.5505697927173347       18.43795247062738       3.685974999999992
   139   1      4.5291681330868085      22.322245992108389      2.7712749999999886
   140   1      4.8603980838803285      22.129204722051476      5.2204749999999933
   141   2      4.0506055455618588      18.541139147620907      2.8357749999999911
   142   2      2.7410130440567824      18.360379831595527      5.1514749999999907
   143   2      2.5507747171888169      20.764492432079603      2.8786749999999905
   144   2      4.0701250802482312       20.64048578840066      5.1340749999999922
   145   1      4.8002066103883756      23.670886728849418      5.2291749999999908
   146   1      4.7925493756438211       24.42492565387068      2.8051749999999842
   147   1      3.3854856123058203      25.255669719311904      4.3252749999999907
   148   1      3.0880650269713796      25.354290614137575      2.1505749999999892
   149   1      3.3326006310239129      25.183165098486363      5.8687749999999923
   150   1      3.4451079716785618      23.003734638482435       3.685974999999992
   151   1      4.4237063120480355      26.888028159963444      2.7712749999999886
   152   1      4.7549362628415555      26.694986889906531      5.2204749999999933
   153   2      3.9451437245230863      23.106921315475962      2.8357749999999911
   154   2      2.6355512230180098      22.926161999450581      5.1514749999999907
   155   2      2.4453128961500439      25.330274599934658      2.8786749999999905
   156   2      3.9646632592094586      25.206267956255715      5.1340749999999922
   157   1      4.6947447893496026      28.236668896704469      5.2291749999999908
   158   1       4.687087554605049      28.990707821725731      2.8051749999999842
   159   1      3.2800237912670474      29.821451887166958      4.3252749999999907
   160   1      2.9826032059326066      29.920072781992626      2.1505749999999892
   161   1      3.2271388099851404      29.748947266341418      5.8687749999999923
   162   1      3.3396461506397888      27.569516806337482       3.685974999999992
   163   1      4.3182444910092634      31.453810327818495      2.7712749999999886
   164   1      4.6494744418027825      31.260769057761582      5.2204749999999933
   165   2      3.8396819034843124      27.672703483331013      2.8357749999999911
   166   2      2.5300894019792364      27.491944167305629      5.1514749999999907
   167   2      2.3398510751112704      29.896056767789709      2.8786749999999905
   168   2      3.8592014381706852      29.772050124110766      5.1340749999999922
   169   1      8.1240157155822406     0.84197588957415015      5.2291749999999908
   170   1      8.1163584808376861      1.5960148145954127      2.8051749999999842
   171   1      6.7092947174996844      2.4267588800366391      4.3252749999999907
   172   1      6.4118741321652433      2.5253797748623081      2.1505749999999892
   173   1      6.6564097362177774      2.3542542592111007      5.8687749999999923
   174   1      6.7689170768724258     0.17482379920716967       3.685974999999992
   175   1      7.7475154172418996       4.059117320688177      2.7712749999999886
   176   1      8.0787453680354204      3.8660760506312655      5.2204749999999933
   177   2      7.2689528297169499     0.27801047620069469      2.8357749999999911
   178   2      5.9593603282118739    0.097251160175313073      5.1514749999999907
   179   2      5.7691220013439084      2.5013637606593906      2.8786749999999905
   180   2      7.2884723644033222      2.3773571169804479      5.1340749999999922
   181   1      8.0185538945434676       5.407758057429203      5.2291749999999908
   182   1      8.0108966597989131      6.1617969824504648      2.8051749999999842
   183   1      6.6038328964609114      6.9925410478916916      4.3252749999999907
   184   1      6.3064123111264703      7.0911619427173616      2.1505749999999892
   185   1      6.5509479151790044      6.9200364270661545      5.8687749999999923
   186   1      6.6634552558336528      4.7406059670622227       3.685974999999992
   187   1      7.6420535962031266        8.62489948854323      2.7712749999999886
   188   1      7.9732835469966465      8.4318582184863189      5.2204749999999933
   189   2      7.1634910086781769      4.8437926440557479      2.8357749999999911
   190   2      5.8538985071731009      4.6630333280303651      5.1514749999999907
   191   2      5.6636601803051354       7.067145928514444      2.8786749999999905
   192   2      7.1830105433645492      6.9431392848355014      5.1340749999999922
   193   1      7.9130920735046955      9.9735402252842569      5.2291749999999908
   194   1      7.9054348387601401      10.727579150305518      2.8051749999999842
   195   1      6.4983710754221384      11.558323215746745      4.3252749999999907
   196   1      6.2009504900876973      11.656944110572413      2.1505749999999892
   197   1      6.4454860941402314      11.485818594921207      5.8687749999999923
   198   1      6.5579934347948798      9.3063881349172757       3.685974999999992
   199   1      7.5365917751643536      13.190681656398283      2.7712749999999886
   200   1      7.8678217259578744      12.997640386341372      5.2204749999999933
   201   2      7.0580291876394039      9.4095748119108009      2.8357749999999911
   202   2      5.7484366861343279      9.2288154958854189      5.1514749999999907
   203   2      5.5581983592663615      11.632928096369495      2.8786749999999905
   204   2      7.0775487223257763      11.508921452690554      5.1340749999999922
   205   1      7.8076302524659207       14.53932239313931      5.2291749999999908
   206   1      7.7999730177213671      15.293361318160571      2.8051749999999842
   207   1      6.3929092543833663      16.124105383601798      4.3252749999999907
   208   1      6.0954886690489261      16.222726278427466      2.1505749999999892
   209   1      6.3400242731014593       16.05160076277626      5.8687749999999923
   210   1      6.4525316137561077      13.872170302772329       3.685974999999992
   211   1      7.4311299541255815      17.756463824253334      2.7712749999999886
   212   1      7.7623599049191014      17.563422554196425      5.2204749999999933
   213   2      6.9525673666006318      13.975356979765854      2.8357749999999911
   214   2      5.6429748650955549      13.794597663740472      5.1514749999999907
   215   2      5.4527365382275903      16.198710264224548      2.8786749999999905
   216   2      6.9720869012870041      16.074703620545606      5.1340749999999922
   217   1      7.7021684314271477      19.105104560994363      5.2291749999999908
   218   1      7.6945111966825941      19.859143486015622      2.8051749999999842
   219   1      6.2874474333445933      20.689887551456852      4.3252749999999907
   220   1      5.9900268480101531      20.788508446282517      2.1505749999999892
   221   1      6.2345624520626863      20.617382930631308      5.8687749999999923
   222   1      6.3470697927173347       18.43795247062738       3.685974999999992
   223   1      7.3256681330868085      22.322245992108389      2.7712749999999886
   224   1      7.6568980838803284      22.129204722051476      5.2204749999999933
   225   2      6.8471055455618588      18.541139147620907      2.8357749999999911
   226   2      5.5375130440567828      18.360379831595527      5.1514749999999907
   227   2      5.3472747171888173      20.764492432079603      2.8786749999999905
   228   2      6.8666250802482311       20.64048578840066      5.1340749999999922
   229   1      7.5967066103883747      23.670886728849418      5.2291749999999908
   230   1      7.5890493756438211       24.42492565387068      2.8051749999999842
   231   1      6.1819856123058203      25.255669719311904      4.3252749999999907
   232   1      5.8845650269713801      25.354290614137575      2.1505749999999892
   233   1      6.1291006310239133      25.183165098486363      5.8687749999999923
   234   1      6.2416079716785617      23.003734638482435       3.685974999999992
   235   1      7.2202063120480355      26.888028159963444      2.7712749999999886
   236   1      7.5514362628415554      26.694986889906531      5.2204749999999933
   237   2      6.7416437245230858      23.106921315475962      2.8357749999999911
   238   2      5.4320512230180098      22.926161999450581      5.1514749999999907
   239   2      5.2418128961500443      25.330274599934658      2.8786749999999905
   240   2       6.761163259209459      25.206267956255715      5.1340749999999922
   241   1      7.4912447893496026      28.236668896704469      5.2291749999999908
   242   1       7.483587554605049      28.990707821725731      2.8051749999999842
   243   1      6.0765237912670482      29.821451887166958      4.3252749999999907
   244   1      5.7791032059326053      29.920072781992626      2.1505749999999892
   245   1      6.0236388099851403      29.748947266341418      5.8687749999999923
   246   1      6.1361461506397887      27.569516806337482       3.685974999999992
   247   1      7.1147444910092625      31.453810327818495      2.7712749999999886
   248   1      7.4459744418027825      31.260769057761582      5.2204749999999933
   249   2      6.6361819034843128      27.672703483331013      2.8357749999999911
   250   2      5.3265894019792368      27.491944167305629      5.1514749999999907
   251   2      5.1363510751112713      29.896056767789709      2.8786749999999905
   252   2      6.6557014381706852      29.772050124110766      5.1340749999999922
   253   1      10.920515715582241     0.84197588957415015      5.2291749999999908
   254   1      10.912858480837686      1.5960148145954127      2.8051749999999842
   255   1      9.5057947174996844      2.4267588800366391      4.3252749999999907
   256   1      9.2083741321652433      2.5253797748623081      2.1505749999999892
   257   1      9.4529097362177765      2.3542542592111007      5.8687749999999923
   258   1      9.5654170768724267     0.17482379920716967       3.685974999999992
   259   1        10.5440154172419       4.059117320688177      2.7712749999999886
   260   1       10.87524536803542      3.8660760506312655      5.2204749999999933
   261   2       10.06545282971695     0.27801047620069469      2.8357749999999911
   262   2      8.7558603282118739    0.097251160175313073      5.1514749999999907
   263   2      8.5656220013439075      2.5013637606593906      2.8786749999999905
   264   2      10.084972364403322      2.3773571169804479      5.1340749999999922
   265   1      10.815053894543468       5.407758057429203      5.2291749999999908
   266   1      10.807396659798913      6.1617969824504648      2.8051749999999842
   267   1      9.4003328964609114      6.9925410478916916      4.3252749999999907
   268   1      9.1029123111264703      7.0911619427173616      2.1505749999999892
   269   1      9.3474479151790035      6.9200364270661545      5.8687749999999923
   270   1      9.4599552558336537      4.7406059670622227       3.685974999999992
   271   1      10.438553596203127        8.62489948854323      2.7712749999999886
   272   1      10.769783546996647      8.4318582184863189      5.2204749999999933
   273   2      9.9599910086781769      4.8437926440557479      2.8357749999999911
   274   2      8.6503985071731009      4.6630333280303651      5.1514749999999907
   275   2      8.4601601803051345       7.067145928514444      2.8786749999999905
   276   2      9.9795105433645492      6.9431392848355014      5.1340749999999922
   277   1      10.709592073504695      9.9735402252842569      5.2291749999999908
   278   1       10.70193483876014      10.727579150305518      2.8051749999999842
   279   1      9.2948710754221384      11.558323215746745      4.3252749999999907
   280   1      8.9974504900876973      11.656944110572413      2.1505749999999892
   281   1      9.2419860941402305      11.485818594921207      5.8687749999999923
   282   1      9.3544934347948807      9.3063881349172757       3.685974999999992
   283   1      10.333091775164354      13.190681656398283      2.7712749999999886
   284   1      10.664321725957874      12.997640386341372      5.2204749999999933
   285   2      9.8545291876394039      9.4095748119108009      2.8357749999999911
   286   2      8.5449366861343279      9.2288154958854189      5.1514749999999907
   287   2      8.3546983592663615      11.632928096369495      2.8786749999999905
   288   2      9.8740487223257762      11.508921452690554      5.1340749999999922
   289   1      10.604130252465922       14.53932239313931      5.2291749999999908
   290   1      10.596473017721367      15.293361318160571      2.8051749999999842
   291   1      9.1894092543833654      16.124105383601798      4.3252749999999907
   292   1      8.8919886690489243      16.222726278427466      2.1505749999999892
   293   1      9.1365242731014575       16.05160076277626      5.8687749999999923
   294   1      9.2490316137561077      13.872170302772329       3.685974999999992
   295   1      10.227629954125581      17.756463824253334      2.7712749999999886
   296   1      10.558859904919101      17.563422554196425      5.2204749999999933
   297   2      9.7490673666006309      13.975356979765854      2.8357749999999911
   298   2      8.4394748650955549      13.794597663740472      5.1514749999999907
   299   2      8.2492365382275885      16.198710264224548      2.8786749999999905
   300   2      9.7685869012870032      16.074703620545606      5.1340749999999922
   301   1      10.498668431427149      19.105104560994363      5.2291749999999908
   302   1      10.491011196682598      19.859143486015622      2.8051749999999842
   303   1      9.0839474333445942      20.689887551456852      4.3252749999999907
   304   1       8.786526848010153      20.788508446282517      2.1505749999999892
   305   1      9.0310624520626863      20.617382930631308      5.8687749999999923
   306   1      9.1435697927173347       18.43795247062738       3.685974999999992
   307   1      10.122168133086808      22.322245992108389      2.7712749999999886
   308   1      10.453398083880328      22.129204722051476      5.2204749999999933
   309   2      9.6436055455618614      18.541139147620907      2.8357749999999911
   310   2      8.3340130440567819      18.360379831595527      5.1514749999999907
   311   2      8.1437747171888173      20.764492432079603      2.8786749999999905
   312   2      9.6631250802482302       20.64048578840066      5.1340749999999922
   313   1      10.393206610388376      23.670886728849418      5.2291749999999908
   314   1      10.385549375643825       24.42492565387068      2.8051749999999842
   315   1      8.9784856123058212      25.255669719311904      4.3252749999999907
   316   1        8.68106502697138      25.354290614137575      2.1505749999999892
   317   1      8.9256006310239133      25.183165098486363      5.8687749999999923
   318   1      9.0381079716785617      23.003734638482435       3.685974999999992
   319   1      10.016706312048035      26.888028159963444      2.7712749999999886
   320   1      10.347936262841555      26.694986889906531      5.2204749999999933
   321   2      9.5381437245230885      23.106921315475962      2.8357749999999911
   322   2      8.2285512230180089      22.926161999450581      5.1514749999999907
   323   2      8.0383128961500425      25.330274599934658      2.8786749999999905
   324   2      9.5576632592094573      25.206267956255715      5.1340749999999922
   325   1      10.287744789349603      28.236668896704469      5.2291749999999908
   326   1      10.280087554605052      28.990707821725731      2.8051749999999842
   327   1      8.8730237912670482      29.821451887166958      4.3252749999999907
   328   1      8.5756032059326071      29.920072781992626      2.1505749999999892
   329   1      8.8201388099851403      29.748947266341418      5.8687749999999923
   330   1      8.9326461506397887      27.569516806337482       3.685974999999992
   331   1      9.9112444910092616      31.453810327818495      2.7712749999999886
   332   1      10.242474441802782      31.260769057761582      5.2204749999999933
   333   2      9.4326819034843155      27.672703483331013      2.8357749999999911
   334   2      8.1230894019792359      27.491944167305629      5.1514749999999907
   335   2      7.9328510751112704      29.896056767789709      2.8786749999999905
   336   2      9.4522014381706843      29.772050124110766      5.1340749999999922
   337   1      13.717015715582242     0.84197588957415015      5.2291749999999908
   338   1      13.709358480837686      1.5960148145954127      2.8051749999999842
   339   1      12.302294717499686      2.4267588800366391      4.3252749999999907
   340   1      12.004874132165243      2.5253797748623081      2.1505749999999892
   341   1      12.249409736217777      2.3542542592111007      5.8687749999999923
   342   1      12.361917076872427     0.17482379920716967       3.685974999999992
   343   1        13.3405154172419       4.059117320688177      2.7712749999999886
   344   1      13.671745368035422      3.8660760506312655      5.2204749999999933
   345   2      12.861952829716952     0.27801047620069469      2.8357749999999911
   346   2      11.552360328211876    0.097251160175313073      5.1514749999999907
   347   2      11.362122001343909      2.5013637606593906      2.8786749999999905
   348   2      12.881472364403324      2.3773571169804479      5.1340749999999922
   349   1      13.611553894543469       5.407758057429203      5.2291749999999908
   350   1      13.603896659798913      6.1617969824504648      2.8051749999999842
   351   1      12.196832896460913      6.9925410478916916      4.3252749999999907
   352   1       11.89941231112647      7.0911619427173616      2.1505749999999892
   353   1      12.143947915179004      6.9200364270661545      5.8687749999999923