LAMMPS data file via write_data, version 29 Sep 2021, timestep = 100000

588 atoms
2 atom types

1.189065005737513 21.71078535917185 xlo xhi
1.6177714729142831 29.538409623660424 ylo yhi
0 30 zlo zhi
0 0 0 xy xz yz

Masses

1 1.008
2 15.999

Atoms # atomic

1 1 4.174564396708281 4.329280288756479 4.563984166040926 0 0 0
2 1 2.76167312622544 5.664055034414332 5.253114648678776 0 0 0
517 1 1.2549336827572142 8.441495140493576 4.487898478357689 1 0 0
510 1 1.2177166357459313 4.814250583903801 2.490618285509113 1 0 0
5 1 2.810416140013607 3.5131329702209686 1.7363590585438509 0 0 0
6 1 4.183520363675445 4.825777236975575 2.4788742011773675 0 0 0
7 1 2.640516275044276 3.584347168980641 3.3417725377751646 0 0 0
8 1 1.2446859275472602 2.848503156735478 4.46352855294273 0 0 0
505 1 1.286254829368155 4.388394823323603 4.520816378098058 1 0 0
10 2 1.821364596471672 5.5985834377344155 2.5661956065134 0 0 0
11 2 3.3347672362844176 3.5944551910240974 2.551717879719063 0 0 0
12 2 1.8731169846955549 3.6115966449108186 4.4215358503434485 0 0 0
15 1 1.1953479731446532 6.384423092158694 2.4903893120166063 0 0 0
16 1 2.6356783615734125 5.603443866021765 3.6408380224584755 0 0 0
17 1 2.753530199760597 7.591760715087 1.7740417255991143 0 0 0
108 2 4.773733558673616 7.59535266300373 4.416307263013066 0 0 0
19 1 2.6007052086882245 7.620039017588921 3.376878777553927 0 0 0
20 1 1.2203453362472714 6.863045442139497 4.503608213747221 0 0 0
21 2 3.3113456725790105 5.603751568909239 4.455848702351964 0 0 0
23 2 3.2985845806054934 7.6311877768167795 2.565718318708085 0 0 0
24 2 1.8531334262815395 7.640703667551355 4.466033116093698 0 0 0
86 1 5.673316415839999 5.664049426871033 5.228903349592818 0 0 0
87 1 4.195890253433502 2.421496889935557 2.503559664245651 0 0 0
107 2 6.218980895339797 7.622278999281099 2.546978014602162 0 0 0
89 1 5.692558392299658 3.5817160934900265 1.7397811437720254 0 0 0
91 1 5.548148510697381 3.62240122240494 3.373401185969919 0 0 0
92 1 4.20444529403679 2.784771884493373 4.555590455648302 0 0 0
105 2 6.178386001303464 5.600028755154703 4.412367595110464 0 0 0
94 2 4.756077871245378 5.629152956509197 2.5559747423824715 0 0 0
95 2 6.227617553082336 3.6049127659261675 2.553534540606778 0 0 0
96 2 4.789697287045868 3.5755570821672276 4.452336073218699 0 0 0
99 1 4.1672722190663025 6.42972581878514 2.4289193403598457 0 0 0
100 1 5.480732156122641 5.6282524708708 3.581367309440898 0 0 0
101 1 5.687106038322894 7.7018103839883905 1.7190063172077836 0 0 0
103 1 5.531059375650444 7.630375672323885 3.3639605882778456 0 0 0
104 1 4.195205074261054 6.791033671070048 4.493329459179175 0 0 0
13 1 4.150617629880828 8.34938171897224 4.536005568356225 0 0 0
9 2 3.3099683583186503 1.6185218502336183 4.437317517501742 0 0 0
82 2 1.82144046151158 1.625017060638046 2.596854884224193 0 1 0
4 1 2.573882983569108 1.6430368912271514 3.6263804615489357 0 0 0
74 1 2.8247847071247403 1.69736235120393 5.281482809920078 0 1 0
534 1 1.2848472639018236 12.809062062154906 2.4773318366468877 1 0 0
14 1 2.828410473721739 9.612670233522561 5.274571662533932 0 0 0
22 2 1.8976304144674012 9.598737260386724 2.5593692743933905 0 0 0
25 1 4.182380964380458 12.421504022698485 4.511231782194131 0 0 0
26 1 2.8010049679222044 13.581741768736427 5.272312427943931 0 0 0
27 1 1.2898273225364745 10.37552678583091 2.4527048448847357 0 0 0
28 1 2.6060458426410005 9.65342441918155 3.67237887503794 0 0 0
29 1 2.8109324881726945 11.594635233463618 1.7196082302297477 0 0 0
30 1 4.127492551808704 12.827724381501858 2.452440824832631 0 0 0
31 1 2.633365456269032 11.631358684066093 3.351652348853538 0 0 0
32 1 1.2879535835115843 10.836173943135728 4.497352771898549 0 0 0
33 2 3.305336693030385 9.661792454965791 4.445418090423123 0 0 0
34 2 1.8628239710690933 13.590226999439817 2.6032712067833046 0 0 0
35 2 3.315837209482298 11.577006304251716 2.53036195264428 0 0 0
36 2 1.8831205119719168 11.634602704093016 4.403488375315714 0 0 0
39 1 1.288621243665144 14.392197740586402 2.492945635233445 0 0 0
40 1 2.6284995917747205 13.634780298011655 3.6700559350289867 0 0 0
529 1 1.2513523312157553 12.378156263552276 4.516109274153982 1 0 0
18 1 4.224988036051842 8.84296392646547 2.4994122631514615 0 0 0
45 2 3.3256267406574587 13.62942590212344 4.461955871121279 0 0 0
129 2 6.212087044924403 13.606880163766858 4.424825595855888 0 0 0
98 1 5.739283220267535 9.526551026549496 5.296518243108998 0 0 0
106 2 4.800949696313161 9.627327176713996 2.566393419372359 0 0 0
110 1 5.649150216209548 13.490540555857146 5.21596874606845 0 0 0
111 1 4.180086369200355 10.424965682363469 2.4738387259049914 0 0 0
112 1 5.521601259489654 9.597427497535136 3.6465308556706884 0 0 0
113 1 5.73275778028587 11.583011793941044 1.7395630270425537 0 0 0
115 1 5.521675583189308 11.606898745792323 3.3793621041497004 0 0 0
116 1 4.216986820843902 10.828327637320898 4.508494215147195 0 0 0
117 2 6.225872078708987 9.588192066526926 4.445690219244526 0 0 0
118 2 4.749889136135318 13.588288938137826 2.573353759444973 0 0 0
119 2 6.225578736663403 11.58122811141384 2.5671328558196507 0 0 0
120 2 4.769778773588882 11.632319482394237 4.441109852042425 0 0 0
123 1 4.1841933937691795 14.385343370236328 2.495227313332643 0 0 0
124 1 5.560146561551261 13.592996426114222 3.5885344504697136 0 0 0
128 1 4.167717659098097 14.828467827539043 4.553538677863673 0 0 0
522 1 1.264312302233033 8.817755096272307 2.48516778804274 1 0 0
44 1 1.2060872967093643 14.798110489151496 4.511821229779374 0 0 0
131 2 6.236207266603715 15.555868010950023 2.566439528128442 0 0 0
125 1 5.74393378825225 15.517239181792611 1.734792891538498 0 0 0
127 1 5.523844496937905 15.562464500497654 3.3541004778874903 0 0 0
37 1 4.169333859244768 16.3837213538532 4.494107990880606 0 0 0
38 1 2.7506060968567603 17.582201493798657 5.250782749466613 0 0 0
153 2 6.246039689125871 21.563867131857705 4.413033893530143 0 0 0
42 1 4.177869771200825 16.83158391887213 2.4536572225596474 0 0 0
46 2 1.856812372689923 17.597927018259888 2.6048194963813267 0 0 0
558 1 1.2030107666396388 20.80431011936046 2.5017622032941675 1 0 0
49 1 4.216671925133237 20.377207327401997 4.511878796644423 0 0 0
50 1 2.7182480574214063 21.5899476707308 5.240817499243163 0 0 0
51 1 1.2831164943573907 18.43348889058219 2.567857378346209 0 0 0
52 1 2.5900934423897732 17.579578381149275 3.634912506333702 0 0 0
53 1 2.7734519032320124 19.56369761802273 1.7494534911588737 0 0 0
54 1 4.143637034362134 20.807830196439213 2.4187401025118467 0 0 0
55 1 2.606574399143331 19.527378554466573 3.3531172529016806 0 0 0
56 1 1.1989424031145182 18.794082581737122 4.527482189317112 0 0 0
57 2 3.3083262947777916 17.57572213009 4.454891245858855 0 0 0
58 2 1.8169498513366864 21.570847041918043 2.5879931793864186 0 0 0
59 2 3.2986886358757372 19.577172327479154 2.5621229776048717 0 0 0
60 2 1.831810062222519 19.53093248800303 4.41586359351785 0 0 0
63 1 1.2083719259648407 22.37713933178948 2.4953536098434568 0 0 0
64 1 2.606764091248981 21.552945579863888 3.615076825939979 0 0 0
69 2 3.2872598289290957 21.5405187403883 4.437039519413679 0 0 0
122 1 5.731948634103597 17.583726385231966 5.284894055665886 0 0 0
148 1 5.543859007746988 21.592230883341628 3.6414524394161427 0 0 0
130 2 4.773489142589357 17.594336196875005 2.5811473538155867 0 0 0
553 1 1.2511017412005885 20.3252048464552 4.489726139250563 1 0 0
134 1 5.756906818438314 21.595016566722904 5.264127581462 0 0 0
135 1 4.151230675048765 18.369577263085162 2.5124580891644115 0 0 0
136 1 5.515967381072688 17.535213543791553 3.6781719404835824 0 0 0
137 1 5.7249687685584005 19.550912000808374 1.7433885655986407 0 0 0
139 1 5.563939768332616 19.582384855606414 3.374785262327378 0 0 0
140 1 4.193075450787668 18.797761570622548 4.476273575254331 0 0 0
141 2 6.253985658432812 17.576878262380546 4.441615004897797 0 0 0
142 2 4.757330926208677 21.58735390271727 2.569885395825846 0 0 0
143 2 6.259017529616172 19.55081912314418 2.555404178125362 0 0 0
144 2 4.794723515376322 19.580776349944834 4.418896678007471 0 0 0
147 1 4.126602628648721 22.379651831358096 2.5394562530853264 0 0 0
541 1 1.211634696175701 16.38044725769381 4.55297560096834 1 0 0
546 1 1.2284304488682982 16.830455335107793 2.5276814890476498 1 0 0
43 1 2.612920102983174 15.636071368892559 3.3481252731810613 0 0 0
47 2 3.32251877914552 15.60775817511132 2.5454837007673454 0 0 0
132 2 4.772847260299852 15.599427382579883 4.4222426357757145 0 0 0
41 1 2.763249821634079 15.635520195230905 1.741254879780099 0 0 0
48 2 1.803974558396594 15.59023476335285 4.426486610992005 0 0 0
61 1 4.141347896677772 24.359366413972097 4.4591946768700765 0 0 0
62 1 2.756855347999946 25.573306482880255 5.23804467124307 0 0 0
65 1 2.768419206966308 23.514197326148036 1.7195262964425213 0 0 0
66 1 4.162290836895363 24.785319417513172 2.441751049526 0 0 0
67 1 2.565550169174617 23.55730313778509 3.376102581707335 0 0 0
68 1 1.1918129593711293 22.724751100285538 4.54969480701545 0 0 0
70 2 1.8000784324389323 25.540906379934505 2.5830840083069617 0 0 0
71 2 3.262637325045721 23.559249833974228 2.5637316889225388 0 0 0
72 2 1.8097167643588365 23.535427386400784 4.466497111626936 0 0 0
73 1 4.123854407948497 28.30557645558907 4.513233052506954 0 0 0
168 2 4.74482775311845 27.539346396034418 4.441236434451724 0 0 0
166 2 4.767127306905266 29.524032284229577 2.561023616538752 0 0 0
76 1 2.557053159459671 25.48801049004159 3.592926754945696 0 0 0
77 1 2.76939032442899 27.455671962557346 1.7363935558588166 0 0 0
78 1 4.116997761861404 28.767606112127147 2.4929026284583315 0 0 0
79 1 2.593233283076694 27.50567388762913 3.378199038942458 0 0 0
80 1 1.2019529380722724 26.753204825115134 4.550789321998096 0 0 0
81 2 3.2836248691583436 25.49709866037508 4.405304579928062 0 0 0
582 1 1.2874804304094256 28.71077599628793 2.4672014329768923 1 0 0
83 2 3.288415858098959 27.53464325544781 2.554127593666011 0 0 0
84 2 1.8434155967068873 27.51397897412169 4.42269356896676 0 0 0
146 1 5.735367204530333 25.48483687155094 5.255339278505111 0 0 0
149 1 5.655507117173818 23.44858055430152 1.7889821242083275 0 0 0
151 1 5.532080910560792 23.562578190036973 3.374639095181084 0 0 0
152 1 4.109125191500063 22.785248456548644 4.538251564057813 0 0 0
154 2 4.793119282841943 25.536191612732885 2.569650401037842 0 0 0
155 2 6.2222212773013466 23.545697209649347 2.567771900937106 0 0 0
156 2 4.754232071251752 23.549219422985068 4.418123866990203 0 0 0
167 2 6.232213001902093 27.53788034182184 2.5843701461874953 0 0 0
159 1 4.178515455976207 26.30581893271784 2.511100040385192 0 0 0
160 1 5.558100976861722 25.501103789038524 3.6492675896884705 0 0 0
161 1 5.701541340531032 27.579691707729516 1.7687670046707717 0 0 0
163 1 5.495244644323386 27.54422445057545 3.379108973256176 0 0 0
164 1 4.150734653717812 26.738640279057847 4.4697835750918955 0 0 0
165 2 6.238399320127201 25.497248042757782 4.4420635873665235 0 0 0
577 1 1.3082838896429172 28.341222438918365 4.534873309309089 1 0 0
93 2 6.244055310455301 29.48527795692801 4.4236139663576015 0 -1 0
158 1 5.723144139682355 29.39409919050435 5.240928075901465 0 0 0
88 1 5.519836857764985 29.53592834704007 3.6429031137738397 0 -1 0
85 1 7.0372363240785365 4.39291650830088 4.489435518649122 0 0 0
90 1 7.031698051902648 4.835772223614514 2.4930724839284406 0 0 0
276 2 10.606684707746252 7.582195145801689 4.445475182385505 0 0 0
169 1 10.07408610698828 4.419221888400008 4.511215859901624 0 0 0
170 1 8.575259962809959 5.556352783588109 5.242567481063237 0 0 0
171 1 7.105714863386724 2.413697623901271 2.5505177301789734 0 0 0
272 1 9.945718120375158 6.813399116802487 4.506888283492566 0 0 0
173 1 8.573729516942063 3.6924398440707487 1.8167689579910429 0 0 0
174 1 10.058973054728078 4.814579604250978 2.5024249657651327 0 0 0
175 1 8.497046334858066 3.603339204472621 3.4400200652577984 0 0 0
176 1 7.0972825603630705 2.8068589535206203 4.582880132746706 0 0 0
271 1 11.401514517471632 7.549333578777627 3.3851775503510186 0 0 0
178 2 7.677874175799586 5.601953084637044 2.552956934768088 0 0 0
179 2 9.175415533758668 3.63239794520648 2.566826561919424 0 0 0
180 2 7.65902701556153 3.621299162264563 4.452315981104052 0 0 0
183 1 7.096487285154749 6.397524753144747 2.508771836740461 0 0 0
184 1 8.412133926579626 5.62195914991003 3.5985047914962918 0 0 0
185 1 8.665488206910783 7.641468117052996 1.7025549896249592 0 0 0
268 1 11.403903530087236 5.6006690610034795 3.6235271030706766 0 0 0
187 1 8.449540416332692 7.606991671776938 3.33963306221703 0 0 0
188 1 7.060855608590614 6.795887160353998 4.495162838051023 0 0 0
189 2 9.102873579413778 5.60414257525549 4.431666439516224 0 0 0
191 2 9.150492777872266 7.624504804412048 2.538423693238358 0 0 0
192 2 7.657934370037172 7.597545701993342 4.386487053255127 0 0 0
255 1 10.034491257548737 2.405566913625869 2.450487122421943 0 0 0
267 1 10.060631609772127 6.393928972124679 2.512839553178787 0 0 0
259 1 11.43626164400371 3.5935098589771846 3.4102815851508566 0 0 0
260 1 10.064289435356654 2.8357715511412076 4.520523323117379 0 0 0
262 2 10.663371605079359 5.613918781454801 2.5887639823482096 0 0 0
264 2 10.666956095069324 3.6299736753396927 4.427835750185813 0 0 0
97 1 7.078679658616882 8.409153988894932 4.471336323501342 0 0 0
181 1 10.037217452458494 8.399273994557387 4.541399094904007 0 0 0
172 1 8.44734515602682 1.648154924837077 3.60472005515937 0 0 0
256 1 11.382217709570732 1.6428027889667174 3.651421076332783 0 0 0
334 2 10.685305967654854 1.6426064413903814 2.559271856004558 0 1 0
177 2 9.15955030603278 1.6487451622044655 4.427923028724983 0 0 0
296 1 10.043802850265166 14.748264701140254 4.520703481925031 0 0 0
109 1 7.023272605654061 12.340864631424267 4.484175189386638 0 0 0
114 1 7.1008467915907945 12.782142645527326 2.4413383022310287 0 0 0
292 1 11.392670616661459 13.568352125433258 3.616682364889746 0 0 0
182 1 8.6680331670453 9.615306140085984 5.291229656606042 0 0 0
190 2 7.7156442315030915 9.582834698082383 2.5666805440833627 0 0 0
193 1 10.073615790601808 12.33304009276367 4.540982639406133 0 0 0
194 1 8.67308951109979 13.515570860564633 5.295696890238992 0 0 0
195 1 7.077538323261113 10.353987329281281 2.509619403415574 0 0 0
196 1 8.42317488781567 9.564565006764042 3.6542349375502376 0 0 0
197 1 8.666947671594903 11.530379734348427 1.7442932616299942 0 0 0
198 1 10.012993454211248 12.777550731288619 2.4795751940480257 0 0 0
199 1 8.46715604054241 11.589588569188356 3.3591037009878515 0 0 0
200 1 7.114814982553811 10.778381693065791 4.580427961098566 0 0 0
201 2 9.14987847310229 9.588904388816047 4.430601917443024 0 0 0
202 2 7.727878380310224 13.542527948262043 2.561935871883335 0 0 0
203 2 9.157020208696522 11.550359524709592 2.567168838445916 0 0 0
204 2 7.697114021303178 11.589861186289285 4.4358781211905285 0 0 0
207 1 7.130282649896782 14.334778336666258 2.408722035472191 0 0 0
208 1 8.46943071440301 13.539783704930468 3.6383191907907118 0 0 0
291 1 10.048424375516992 14.344674134826127 2.46777429759385 0 0 0
212 1 7.166987753087567 14.837700660002637 4.527527476558755 0 0 0
213 2 9.140693724558744 13.573268932610553 4.441810603174506 0 0 0
288 2 10.656530805224012 11.532641570034873 4.41988027887977 0 0 0
274 2 10.679189268153014 9.570148794957035 2.5763969904957453 0 0 0
279 1 10.049487880457137 10.327874498836481 2.5380961932405146 0 0 0
280 1 11.40397288565524 9.582449310363646 3.650682465601522 0 0 0
283 1 11.425132666519533 11.554299502111801 3.3505286557464795 0 0 0
284 1 10.071087522576123 10.756818728395784 4.554000095282081 0 0 0
286 2 10.637721421482903 13.53931170843423 2.5724747643853725 0 0 0
186 1 10.063319436057363 8.790345772002528 2.5044248421634334 0 0 0
300 2 10.660662532766233 15.544082793468972 4.427352491783713 0 0 0
102 1 7.0997327061266144 8.803751769808635 2.4576769088556065 0 0 0
209 1 8.64014091766948 15.557099357697748 1.7646272177356477 0 0 0
215 2 9.1663216241793 15.539152161452675 2.5601731826385254 0 0 0
121 1 7.091983126652952 16.389178479896245 4.463015606068829 0 0 0
126 1 7.119817228425543 16.73538766005708 2.4800661081601056 0 0 0
133 1 7.129701013711854 20.372153862744632 4.498060025095273 0 0 0
138 1 7.167692932117005 20.792925713239576 2.4502004836328157 0 0 0
205 1 10.060883567987265 16.349507617602814 4.478087184674737 0 0 0
206 1 8.667584803543715 17.51756873866898 5.272549789515957 0 0 0
316 1 11.400107539040247 21.556872172855172 3.6608424693895403 0 0 0
210 1 10.033838363754654 16.717928457751107 2.5140154809159516 0 0 0
214 2 7.715027612914025 17.5462749873373 2.5903318708225873 0 0 0
315 1 10.028407285765637 22.29378486429033 2.5128054912189692 0 0 0
217 1 10.01165053273375 20.371231516042847 4.526684209921123 0 0 0
218 1 8.624898960500232 21.516183443953103 5.280808805684261 0 0 0
219 1 7.109360681560967 18.310565542508726 2.535880042130107 0 0 0
220 1 8.468987879728788 17.553842416813787 3.6685178817513004 0 0 0
221 1 8.581348606967243 19.556928357961972 1.7603383117162057 0 0 0
222 1 10.065024945100847 20.764788038189344 2.5139776036440677 0 0 0
223 1 8.454922097470025 19.521735561408704 3.356915546799542 0 0 0
224 1 7.1209697120276445 18.793764993174115 4.536721712634974 0 0 0
225 2 9.180295447428293 17.572298092529977 4.454031020610511 0 0 0
226 2 7.697443646286284 21.607308399710917 2.552968585165078 0 0 0
227 2 9.15949622575221 19.56756905397124 2.5715393403430005 0 0 0
228 2 7.717963706999178 19.575298008613778 4.432328120718442 0 0 0
231 1 7.045216125633231 22.370581520032715 2.5056625136341566 0 0 0
232 1 8.44863736181335 21.55721520532166 3.6565427972328157 0 0 0
237 2 9.163898513628634 21.563017193970545 4.452171989148817 0 0 0
298 2 10.619085811322314 17.52293475756605 2.547819934247647 0 0 0
312 2 10.633966450036354 19.58950873956487 4.434480351062669 0 0 0
303 1 9.94625979849836 18.271487704599934 2.4943694313224962 0 0 0
304 1 11.414522139289838 17.543286282003116 3.5863489804019055 0 0 0
310 2 10.658112189531263 21.539270258889516 2.5939232289392757 0 0 0
308 1 10.085456132541934 18.7608583060292 4.511318512700465 0 0 0
216 2 7.733189181638052 15.622764096214873 4.405301648401539 0 0 0
211 1 8.463918478631584 15.583938144456763 3.354606880663943 0 0 0
307 1 11.392803533122898 19.55930229773478 3.351208308033563 0 0 0
295 1 11.403358206789564 15.590581342759078 3.4201811639023614 0 0 0
145 1 7.132586267139083 24.3310944861691 4.520889652641707 0 0 0
150 1 7.092573310074205 24.79101145484804 2.4438435873594537 0 0 0
157 1 7.126710914361375 28.300066129578852 4.496774805500289 0 0 0
162 1 7.086527400107384 28.770599031430756 2.533699982201401 0 0 0
229 1 10.070492693036526 24.38092035242088 4.484717899381099 0 0 0
230 1 8.632383566421659 25.577875318661867 5.206681059187456 0 0 0
233 1 8.623499776515436 23.487240025573925 1.7733537835481665 0 0 0
234 1 10.071840246326111 24.740305023710306 2.4749835443649904 0 0 0
235 1 8.524036281291329 23.565093615730518 3.370596343969681 0 0 0
236 1 7.148229604126045 22.784467473238173 4.53186938099471 0 0 0
238 2 7.69636297908286 25.563261554685624 2.564057237965591 0 0 0
239 2 9.169265341873162 23.560544211618875 2.5626059059896686 0 0 0
240 2 7.7433994889304785 23.548752406426438 4.443577413640957 0 0 0
241 1 10.0115966182851 28.350347846722023 4.473252413433356 0 0 0
336 2 10.627425021385159 27.552674280111788 4.40706878865854 0 0 0
243 1 7.105951261504314 26.378858915370905 2.4692443237423687 0 0 0
244 1 8.47509914600543 25.543669390454255 3.552886598810213 0 0 0
245 1 8.67128424256401 27.542434386049464 1.7159514903993835 0 0 0
246 1 10.048763054367273 28.790251289911623 2.481885883209106 0 0 0
247 1 8.474000174277538 27.5477965878124 3.319141707176297 0 0 0
248 1 7.127993336963419 26.729230758059245 4.491882873270856 0 0 0
249 2 9.148707631622297 25.550285051347387 4.3844465107266934 0 0 0
332 1 10.037236819663915 26.737717053632615 4.4998468705437755 0 0 0
251 2 9.165763011687414 27.543056799535925 2.547983469601329 0 0 0
252 2 7.737016023686978 27.50982664666998 4.418591994998 0 0 0
319 1 11.413904153804232 23.53761024213138 3.3626531211313284 0 0 0
320 1 10.017104643464235 22.826585487254164 4.54487334233512 0 0 0
322 2 10.658773595772308 25.528542292144806 2.5614886115390116 0 0 0
324 2 10.641960983534611 23.57582342169318 4.415765992528709 0 0 0
327 1 10.05564423834948 26.32258406906518 2.426231215016646 0 0 0
328 1 11.379472506057171 25.502154183058003 3.62880972820213 0 0 0
331 1 11.417865711045488 27.557095842396514 3.3691394779694455 0 0 0
250 2 7.702028885336619 29.533662830565163 2.6121264192891815 0 0 0
242 1 8.644050560877073 29.525799135375735 5.25641868059772 0 0 0
253 1 12.987299590565412 4.372630153868105 4.56649507418151 0 0 0
254 1 11.635344236685714 5.609438358931835 5.24152897665395 0 0 0
257 1 11.598533425295109 3.627371164763762 1.7585684852785577 0 0 0
258 1 12.96082237704823 4.803872661411136 2.5459135826313295 0 0 0
444 2 16.515904331572898 7.6480137211679144 4.435273147103793 0 0 0
263 2 12.122814348346214 3.6281295403334073 2.5712305284474377 0 0 0
269 1 11.605903932797757 7.639007574737298 1.742707338574655 0 0 0
440 1 15.919823858671087 6.85972026609203 4.50266383616773 0 0 0
273 2 12.140252763343366 5.572791668123793 4.431905541915156 0 0 0
275 2 12.092518592459609 7.603891302057672 2.594129157063708 0 0 0
337 1 15.933972998376852 4.391828038280819 4.5243391394939705 0 0 0
338 1 14.553949245713252 5.632286442720457 5.263768511162879 0 0 0
339 1 12.990503867499422 2.3897615307463234 2.476418250985943 0 0 0
435 1 15.903132584251018 6.365878731064313 2.519137215528982 0 0 0
341 1 14.498126230732918 3.6647418778465495 1.7429292554209042 0 0 0
342 1 15.96933464686089 4.795765573607417 2.5103562476143995 0 0 0
343 1 14.419580788195889 3.6562984139951795 3.369846192504617 0 0 0
344 1 12.999124907138182 2.8152515893475885 4.5153809767541055 0 0 0
432 2 16.53142681036872 3.6183032760404124 4.428774502177687 0 0 0
346 2 13.587710712096607 5.604584239615461 2.5842436531303408 0 0 0
347 2 15.06001225135198 3.5971081240524416 2.549894640790811 0 0 0
348 2 13.59128349624249 3.585044724445136 4.4441681225590886 0 0 0
351 1 12.966126800154065 6.35240238865611 2.505264150190533 0 0 0
352 1 14.32757521682032 5.629878083658221 3.6170373935169406 0 0 0
353 1 14.517292094117401 7.641263029150119 1.7787961208882364 0 0 0
430 2 16.53770053060094 5.597566095209842 2.592831279694129 0 0 0
355 1 14.358085005958081 7.564467050229471 3.412297539244127 0 0 0
356 1 12.968617400612882 6.770408332100284 4.505723524022047 0 0 0
357 2 15.054226323564649 5.6248743302447135 4.423020508136236 0 0 0
359 2 15.05096916180162 7.59052075688064 2.5863667561229695 0 0 0
360 2 13.58874940499642 7.558260892406403 4.4418253527201905 0 0 0
423 1 15.909328625777848 2.3769029187402118 2.433168696652243 0 0 0
428 1 15.937977035788183 2.8297585419483537 4.5571499620420495 0 0 0
265 1 12.990584513159419 8.350942642216989 4.504248168418499 0 0 0
349 1 15.889749666249015 8.421980449049004 4.519058736841036 0 0 0
410 1 14.498173293734622 1.6594299217890274 5.240711756287438 0 1 0
340 1 14.379461590284173 1.6695199309222493 3.60947160444025 0 0 0
326 1 11.635612429411156 1.6279926949290995 5.282327542283392 0 1 0
418 2 13.605520020966459 1.6215906441701804 2.5674849943461093 0 1 0
464 1 15.895522939668025 14.824582189836637 4.541861020816238 0 0 0
266 1 11.573545863272027 9.494172764078346 5.2781752725784115 0 0 0
277 1 12.949530996879638 12.364755461835836 4.541454367088459 0 0 0
278 1 11.572911690880584 13.669470262816633 5.2596991247564775 0 0 0
281 1 11.607615631064762 11.507756298463882 1.7617010143093736 0 0 0
282 1 12.987625917919003 12.800776029366927 2.5230696706904148 0 0 0
285 2 12.092464001403638 9.58257639120999 4.452902969408505 0 0 0
287 2 12.151452323085216 11.562718413192961 2.5705073826513716 0 0 0
297 2 12.091289720258473 13.582125915491776 4.428997717245669 0 0 0
459 1 15.941575193750786 14.376963237027747 2.4552071237935995 0 0 0
456 2 16.508981412541694 11.60401891566642 4.420649161596106 0 0 0
350 1 14.495994546685546 9.568686401984046 5.2553113242029585 0 0 0
358 2 13.596066228471225 9.589609413176976 2.5844486510831195 0 0 0
361 1 15.908774258692546 12.393380879439192 4.540785096168204 0 0 0
362 1 14.502690489882372 13.574995693831664 5.261722569356638 0 0 0
363 1 13.028989085834006 10.395920290019076 2.54106371223519 0 0 0
364 1 14.299021753815609 9.606362431469062 3.647463700222535 0 0 0
365 1 14.455342611125294 11.672152481131139 1.7357888226356797 0 0 0
366 1 15.925351640200637 12.835423369656803 2.5189507092726826 0 0 0
367 1 14.347743631848548 11.620670999306796 3.3471224441432343 0 0 0
368 1 12.907768028524906 10.825495351004756 4.524599765884602 0 0 0
369 2 15.016717617763842 9.609807092475616 4.435468588551217 0 0 0
370 2 13.580759902594652 13.58267713889769 2.581808486266095 0 0 0
371 2 15.004147981247188 11.618656503466598 2.541893521747897 0 0 0
372 2 13.558690636712486 11.595745436819035 4.437390897994506 0 0 0
375 1 12.96734473272631 14.381158031809802 2.491986342302626 0 0 0
376 1 14.32781821769896 13.647394306090565 3.597675476341321 0 0 0
454 2 16.549656766250337 13.590598628106754 2.5649991818404265 0 0 0
380 1 12.937338816848108 14.78149383482176 4.528032850970683 0 0 0
381 2 15.012161516809055 13.58862062195254 4.4379790435053215 0 0 0
452 1 15.911147278408931 10.843232975576647 4.559617678280286 0 0 0
442 2 16.505744638324195 9.606349007853247 2.5736043373081614 0 0 0
447 1 15.91497324424838 10.390905048011186 2.4326345262477607 0 0 0
379 1 14.35467465413334 15.564594305486482 3.3864090837870475 0 0 0
293 1 11.574212356380068 15.56203562964822 1.755426185995309 0 0 0
270 1 12.95137224802164 8.819778459691737 2.5367928515070663 0 0 0
354 1 15.910525084864293 8.806287916575407 2.5296764644187055 0 0 0
384 2 13.547231153316146 15.558417520654437 4.4372486302402505 0 0 0
383 2 15.028758450499097 15.521413657981476 2.585085078231048 0 0 0
299 2 12.077834168302353 15.542764620665727 2.580208050203999 0 0 0
377 1 14.470583058738276 15.436964497886631 1.7909971102462838 0 0 0
289 1 12.943167690490588 16.342490321487382 4.559214756974246 0 0 0
290 1 11.57572347730225 17.648380359890872 5.221029235644566 0 0 0
483 1 15.949158306602293 22.368425386549852 2.4499864264018796 0 0 0
294 1 12.994349844539103 16.746055518497997 2.4438949061573356 0 0 0
301 1 12.953640953689304 20.34600841856753 4.518808713398821 0 0 0
302 1 11.58400861099971 21.58919272005695 5.286374248146577 0 0 0
305 1 11.517680021604082 19.52110715787544 1.7496871678100328 0 0 0
306 1 12.94491917566488 20.774669911333433 2.5315878393418596 0 0 0
309 2 12.078421670648739 17.593589389216426 4.414597588131944 0 0 0
311 2 12.073130716918051 19.530013840110712 2.539636565859366 0 0 0
321 2 12.121169072199873 21.595748103567587 4.465679280692582 0 0 0
373 1 15.880229861589141 16.390793987763377 4.478347564769619 0 0 0
374 1 14.489656842096093 17.552161745297646 5.276215572349681 0 0 0
480 2 16.505362278455017 19.555611463982856 4.476290357376296 0 0 0
378 1 15.830572447082565 16.80984305233693 2.4531361318135594 0 0 0
382 2 13.562633599361371 17.54789879435685 2.566543082908546 0 0 0
478 2 16.49963462130348 21.559122465904224 2.556390466402722 0 0 0
385 1 15.915191031597207 20.337119893394963 4.56265891758786 0 0 0
386 1 14.517395198007064 21.568095163727342 5.247155593732948 0 0 0
387 1 12.939015230044093 18.353098564278376 2.432771850331121 0 0 0
388 1 14.310289912265977 17.585428572087444 3.6712658510588456 0 0 0
389 1 14.487288439536398 19.545999357002515 1.7400817830012574 0 0 0
390 1 15.869587067219419 20.799368402777127 2.494968790915561 0 0 0
391 1 14.36883796539531 19.56898190218361 3.3704350285163844 0 0 0
392 1 12.966222003589891 18.772011915603386 4.516200752425888 0 0 0
393 2 15.000561866878149 17.562272212947786 4.452329860010038 0 0 0
394 2 13.59431273519811 21.520847188821627 2.5808615345475308 0 0 0
395 2 15.027599293622895 19.567197417302914 2.5539870262721456 0 0 0
396 2 13.578153415786094 19.568267576802143 4.425918654588708 0 0 0
399 1 13.020917750364358 22.323786111413312 2.467498464603251 0 0 0
400 1 14.351600173867899 21.548109245814153 3.6381315721392977 0 0 0
405 2 15.02776885990355 21.568824447712018 4.443500251337211 0 0 0
466 2 16.46263173190662 17.571404436998456 2.56092737342371 0 0 0
476 1 15.884069655938168 18.797772268513057 4.531901365324322 0 0 0
471 1 15.838237933771968 18.336811808148767 2.4609295900079853 0 0 0
468 2 16.5021815590871 15.603077253987381 4.432005058923583 0 0 0
313 1 12.978391568641015 24.37953375804927 4.5494594894140015 0 0 0
314 1 11.59098203822338 25.50910139316705 5.260578095959415 0 0 0
317 1 11.546992452488611 23.533634429076365 1.7720002975441471 0 0 0
318 1 13.000585901900045 24.734609641933964 2.5289005175071626 0 0 0
323 2 12.106734919221525 23.545125392242994 2.569775195810218 0 0 0
325 1 12.972819241880819 28.285475993092142 4.561121124758563 0 0 0
504 2 16.51184892423906 27.558362838346127 4.395571668263866 0 0 0
329 1 11.573356768376081 27.563136128635925 1.7662373882309703 0 0 0
330 1 12.962906053529961 28.77489206208503 2.5068497314933937 0 0 0
333 2 12.103627131906325 25.548457973936557 4.440945021585839 0 0 0
335 2 12.093562907398315 27.537950280620187 2.575788033016417 0 0 0
397 1 15.9189338265154 24.36366195685151 4.536953494412006 0 0 0
398 1 14.503184882089466 25.635506496158342 5.214804876464367 0 0 0
401 1 14.469047515603968 23.57855948061163 1.7376905315048292 0 0 0
402 1 15.923710044783453 24.769512335348992 2.4606330822061464 0 0 0
403 1 14.34846451487977 23.60296591885939 3.392473877082207 0 0 0
404 1 12.968372615181678 22.822148958917225 4.488638494531563 0 0 0
406 2 13.573358892559389 25.548537938019763 2.573605903408672 0 0 0
407 2 15.00917516066923 23.58192806755269 2.5623917364770215 0 0 0
408 2 13.598229104562389 23.59392099576393 4.450596047096105 0 0 0
409 1 15.894971946802366 28.327130724116962 4.493120006411801 0 0 0
500 1 15.896381038732338 26.783226237010382 4.5487724617681575 0 0 0
411 1 12.997882745908 26.34112278556939 2.4868100718795216 0 0 0