J:\n2p2\airss\results\6\lammps\hexatic1-(6-6-1)-6.0A.lammps (written by ASE) 

648 	 atoms 
2  atom types
0.0      25.498799999999996  xlo xhi
0.0      44.964001116345806  ylo yhi
0.0                      30  zlo zhi
    -0.4406231438018276                       0                       0  xy xz yz


Atoms 

     1   1     0.41827996359844349      2.9661552496423562      2.1312965000000026
     2   1      1.1131931107359145    0.089286515816765083      3.7362365000000031
     3   1      1.1511697431363306      1.6977507541509849       2.602632500000003
     4   1      2.6643523733789762      2.6801467325414658      3.9223565000000034
     5   1      3.7128520585214053      4.1488283830052275      3.3043265000000033
     6   1    0.085168656336669202      5.5845739026512655      3.5377265000000029
     7   1       1.507367748777926       5.527012487222156      2.4427115000000028
     8   1      3.0095328707282882      5.5052199346811008      2.0306495000000031
     9   1      3.8210118445652981     0.11452480964336997      3.7081565000000025
    10   1      1.7054124115955906      3.8929457466522894      3.6830465000000028
    11   1      2.4121940004901057       7.485794255853901      2.4644495000000028
    12   1      3.2639829016004747      1.4098312670026505      2.4971645000000029
    13   2      2.4624943968247015      0.9117125686355857       2.826411500000003
    14   2      2.3791163494934731       5.922538323042092      2.6447855000000029
    15   2     0.30226561091591592      2.1957195725143288      2.7050435000000026
    16   2      2.4562214904036299      3.3901957561702409       3.300006500000003
    17   2      0.2713250577077545      7.1670744279408698      3.3196865000000031
    18   2     0.30307419497110022      4.6846493963083482      3.2040665000000028
    19   1     0.34484277296480559       10.46015543569999      2.1312965000000026
    20   1      1.0397559201022766      7.5832867018743988      3.7362365000000031
    21   1      1.0777325525026926      9.1917509402086193       2.602632500000003
    22   1      2.5909151827453383      10.174146918599099      3.9223565000000034
    23   1      3.6394148678877674      11.642828569062861      3.3043265000000033
    24   1    0.011731465703031269      13.078574088708898      3.5377265000000029
    25   1       1.433930558144288      13.021012673279792      2.4427115000000028
    26   1      2.9360956800946503      12.999220120738734      2.0306495000000031
    27   1      3.7475746539316601      7.6085249957010044      3.7081565000000025
    28   1      1.6319752209619527      11.386945932709924      3.6830465000000028
    29   1      2.3387568098564677      14.979794441911535      2.4644495000000028
    30   1      3.1905457109668367      8.9038314530602847      2.4971645000000029
    31   2      2.3890572061910635      8.4057127546932193       2.826411500000003
    32   2      2.3056791588598351      13.416538509099727      2.6447855000000029
    33   2     0.22882842028227801      9.6897197585719628      2.7050435000000026
    34   2       2.382784299769992      10.884195942227874       3.300006500000003
    35   2     0.19788786707411654      14.661074613998506      3.3196865000000031
    36   2     0.22963700433746226      12.178649582365979      3.2040665000000028
    37   1     0.27140558233116763      17.954155621757625      2.1312965000000026
    38   1     0.96631872946863862      15.077286887932033      3.7362365000000031
    39   1      1.0042953618690547      16.685751126266254       2.602632500000003
    40   1      2.5174779921117003      17.668147104656732      3.9223565000000034
    41   1      3.5659776772541294      19.136828755120497      3.3043265000000033
    42   1   -0.061705724930606665      20.572574274766534      3.5377265000000029
    43   1      1.3604933675106501      20.515012859337425      2.4427115000000028
    44   1      2.8626584894610123      20.493220306796367      2.0306495000000031
    45   1      3.6741374632980222      15.102525181758638      3.7081565000000025
    46   1      1.5585380303283147      18.880946118767557      3.6830465000000028
    47   1      2.2653196192228298       22.47379462796917      2.4644495000000028
    48   1      3.1171085203331987      16.397831639117918      2.4971645000000029
    49   2      2.3156200155574256      15.899712940750854       2.826411500000003
    50   2      2.2322419682261971       20.91053869515736      2.6447855000000029
    51   2     0.15539122964864005      17.183719944629598      2.7050435000000026
    52   2       2.309347109136354      18.378196128285509       3.300006500000003
    53   2     0.12445067644047864      22.155074800056138      3.3196865000000031
    54   2     0.15619981370382435      19.672649768423618      3.2040665000000028
    55   1     0.19796839169752969      25.448155807815255      2.1312965000000026
    56   1     0.89288153883500065      22.571287073989669      3.7362365000000031
    57   1      0.9308581712354167      24.179751312323887       2.602632500000003
    58   1      2.4440408014780624      25.162147290714369      3.9223565000000034
    59   1      3.4925404866204914       26.63082894117813      3.3043265000000033
    60   1     -0.1351429155642446      28.066574460824167      3.5377265000000029
    61   1      1.2870561768770121      28.009013045395054      2.4427115000000028
    62   1      2.7892212988273744      27.987220492854004      2.0306495000000031
    63   1      3.6007002726643842      22.596525367816277      3.7081565000000025
    64   1      1.4851008396946765       26.37494630482519      3.6830465000000028
    65   1      2.1918824285891918      29.967794814026803      2.4644495000000028
    66   1      3.0436713296995608      23.891831825175551      2.4971645000000029
    67   2      2.2421828249237876      23.393713126808489       2.826411500000003
    68   2      2.1588047775925592      28.404538881214997      2.6447855000000029
    69   2    0.081954039015002117      24.677720130687231      2.7050435000000026
    70   2       2.235909918502716      25.872196314343142       3.300006500000003
    71   2    0.051013485806840675      29.649074986113774      3.3196865000000031
    72   2    0.082762623070186392      27.166649954481251      3.2040665000000028
    73   1     0.12453120106389176      32.942155993872895      2.1312965000000026
    74   1     0.81944434820136269      30.065287260047302      3.7362365000000031
    75   1     0.85742098060177874      31.673751498381517       2.602632500000003
    76   1      2.3706036108444244      32.656147476771999      3.9223565000000034
    77   1      3.4191032959868535      34.124829127235763      3.3043265000000033
    78   1    -0.20858010619788253      35.560574646881804      3.5377265000000029
    79   1      1.2136189862433744      35.503013231452691      2.4427115000000028
    80   1      2.7157841081937364       35.48122067891164      2.0306495000000031
    81   1      3.5272630820307462      30.090525553873906      3.7081565000000025
    82   1       1.411663649061039      33.868946490882827      3.6830465000000028
    83   1      2.1184452379555534      37.461795000084436      2.4644495000000028
    84   1      2.9702341390659228      31.385832011233184      2.4971645000000029
    85   2      2.1687456342901497      30.887713312866122       2.826411500000003
    86   2      2.0853675869589212       35.89853906727263      2.6447855000000029
    87   2   0.0085168483813641838      32.171720316744867      2.7050435000000026
    88   2      2.1624727278690781      33.366196500400775       3.300006500000003
    89   2   -0.022423704826797231      37.143075172171407      3.3196865000000031
    90   2   0.0093254324365484864      34.660650140538884      3.2040665000000028
    91   1      0.0510940104302538      40.436156179930528      2.1312965000000026
    92   1     0.74600715756772473      37.559287446104939      3.7362365000000031
    93   1     0.78398378996814078       39.16775168443916       2.602632500000003
    94   1       2.297166420210786      40.150147662829639      3.9223565000000034
    95   1      3.3456661053532155      41.618829313293404      3.3043265000000033
    96   1    -0.28201729683152049      43.054574832939437      3.5377265000000029
    97   1      1.1401817956097364      42.997013417510331      2.4427115000000028
    98   1      2.6423469175600984      42.975220864969273      2.0306495000000031
    99   1      3.4538258913971083      37.584525739931543      3.7081565000000025
   100   1      1.3382264584274011       41.36294667694046      3.6830465000000028
   101   1      2.0450080473219154      44.955795186142076      2.4644495000000028
   102   1      2.8967969484322849      38.879832197290824      2.4971645000000029
   103   2      2.0953084436565117      38.381713498923759       2.826411500000003
   104   2      2.0119303963252833      43.392539253330263      2.6447855000000029
   105   2   -0.064920342252273777        39.6657205028025      2.7050435000000026
   106   2      2.0890355372354401      40.860196686458416       3.300006500000003
   107   2   -0.095860895460435191       44.63707535822904      3.3196865000000031
   108   2   -0.064111758197089475      42.154650326596524      3.2040665000000028
   109   1      4.6680799635984433      2.9661552496423562      2.1312965000000026
   110   1      5.3629931107359141    0.089286515816765083      3.7362365000000031
   111   1      5.4009697431363302      1.6977507541509849       2.602632500000003
   112   1      6.9141523733789763      2.6801467325414658      3.9223565000000034
   113   1      7.9626520585214049      4.1488283830052275      3.3043265000000033
   114   1      4.3349686563366685      5.5845739026512655      3.5377265000000029
   115   1      5.7571677487779258       5.527012487222156      2.4427115000000028
   116   1      7.2593328707282883      5.5052199346811008      2.0306495000000031
   117   1      8.0708118445652985     0.11452480964336997      3.7081565000000025
   118   1        5.95521241159559      3.8929457466522894      3.6830465000000028
   119   1      6.6619940004901048       7.485794255853901      2.4644495000000028
   120   1      7.5137829016004742      1.4098312670026505      2.4971645000000029
   121   2      6.7122943968247011      0.9117125686355857       2.826411500000003
   122   2      6.6289163494934726       5.922538323042092      2.6447855000000029
   123   2      4.5520656109159159      2.1957195725143288      2.7050435000000026
   124   2      6.7060214904036304      3.3901957561702409       3.300006500000003
   125   2      4.5211250577077537      7.1670744279408698      3.3196865000000031
   126   2      4.5528741949710998      4.6846493963083482      3.2040665000000028
   127   1      4.5946427729648054       10.46015543569999      2.1312965000000026
   128   1      5.2895559201022762      7.5832867018743988      3.7362365000000031
   129   1      5.3275325525026922      9.1917509402086193       2.602632500000003
   130   1      6.8407151827453383      10.174146918599099      3.9223565000000034
   131   1      7.8892148678877669      11.642828569062861      3.3043265000000033
   132   1      4.2615314657030305      13.078574088708898      3.5377265000000029
   133   1      5.6837305581442878      13.021012673279792      2.4427115000000028
   134   1      7.1858956800946503      12.999220120738734      2.0306495000000031
   135   1      7.9973746539316597      7.6085249957010044      3.7081565000000025
   136   1       5.881775220961952      11.386945932709924      3.6830465000000028
   137   1      6.5885568098564669      14.979794441911535      2.4644495000000028
   138   1      7.4403457109668363      8.9038314530602847      2.4971645000000029
   139   2      6.6388572061910631      8.4057127546932193       2.826411500000003
   140   2      6.5554791588598347      13.416538509099727      2.6447855000000029
   141   2      4.4786284202822779      9.6897197585719628      2.7050435000000026
   142   2      6.6325842997699924      10.884195942227874       3.300006500000003
   143   2      4.4476878670741158      14.661074613998506      3.3196865000000031
   144   2      4.4794370043374618      12.178649582365979      3.2040665000000028
   145   1      4.5212055823311674      17.954155621757625      2.1312965000000026
   146   1      5.2161187294686382      15.077286887932033      3.7362365000000031
   147   1      5.2540953618690542      16.685751126266254       2.602632500000003
   148   1      6.7672779921117003      17.668147104656732      3.9223565000000034
   149   1       7.815777677254129      19.136828755120497      3.3043265000000033
   150   1      4.1880942750693926      20.572574274766534      3.5377265000000029
   151   1      5.6102933675106499      20.515012859337425      2.4427115000000028
   152   1      7.1124584894610123      20.493220306796367      2.0306495000000031
   153   1      7.9239374632980217      15.102525181758638      3.7081565000000025
   154   1      5.8083380303283141      18.880946118767557      3.6830465000000028
   155   1      6.5151196192228289       22.47379462796917      2.4644495000000028
   156   1      7.3669085203331983      16.397831639117918      2.4971645000000029
   157   2      6.5654200155574252      15.899712940750854       2.826411500000003
   158   2      6.4820419682261967       20.91053869515736      2.6447855000000029
   159   2        4.40519122964864      17.183719944629598      2.7050435000000026
   160   2      6.5591471091363545      18.378196128285509       3.300006500000003
   161   2      4.3742506764404778      22.155074800056138      3.3196865000000031
   162   2      4.4059998137038239      19.672649768423618      3.2040665000000028
   163   1      4.4477683916975295      25.448155807815255      2.1312965000000026
   164   1      5.1426815388350002      22.571287073989669      3.7362365000000031
   165   1      5.1806581712354163      24.179751312323887       2.602632500000003
   166   1      6.6938408014780624      25.162147290714369      3.9223565000000034
   167   1       7.742340486620491       26.63082894117813      3.3043265000000033
   168   1      4.1146570844357546      28.066574460824167      3.5377265000000029
   169   1      5.5368561768770119      28.009013045395054      2.4427115000000028
   170   1      7.0390212988273744      27.987220492854004      2.0306495000000031
   171   1      7.8505002726643838      22.596525367816277      3.7081565000000025
   172   1      5.7349008396946761       26.37494630482519      3.6830465000000028
   173   1      6.4416824285891909      29.967794814026803      2.4644495000000028
   174   1      7.2934713296995604      23.891831825175551      2.4971645000000029
   175   2      6.4919828249237872      23.393713126808489       2.826411500000003
   176   2      6.4086047775925588      28.404538881214997      2.6447855000000029
   177   2       4.331754039015002      24.677720130687231      2.7050435000000026
   178   2      6.4857099185027165      25.872196314343142       3.300006500000003
   179   2      4.3008134858068399      29.649074986113774      3.3196865000000031
   180   2      4.3325626230701859      27.166649954481251      3.2040665000000028
   181   1      4.3743312010638915      32.942155993872895      2.1312965000000026
   182   1      5.0692443482013623      30.065287260047302      3.7362365000000031
   183   1      5.1072209806017783      31.673751498381517       2.602632500000003
   184   1      6.6204036108444244      32.656147476771999      3.9223565000000034
   185   1      7.6689032959868531      34.124829127235763      3.3043265000000033
   186   1      4.0412198938021167      35.560574646881804      3.5377265000000029
   187   1       5.463418986243374      35.503013231452691      2.4427115000000028
   188   1      6.9655841081937364       35.48122067891164      2.0306495000000031
   189   1      7.7770630820307458      30.090525553873906      3.7081565000000025
   190   1      5.6614636490610382      33.868946490882827      3.6830465000000028
   191   1       6.368245237955553      37.461795000084436      2.4644495000000028
   192   1      7.2200341390659224      31.385832011233184      2.4971645000000029
   193   2      6.4185456342901492      30.887713312866122       2.826411500000003
   194   2      6.3351675869589208       35.89853906727263      2.6447855000000029
   195   2       4.258316848381364      32.171720316744867      2.7050435000000026
   196   2      6.4122727278690785      33.366196500400775       3.300006500000003
   197   2      4.2273762951732019      37.143075172171407      3.3196865000000031
   198   2       4.259125432436548      34.660650140538884      3.2040665000000028
   199   1      4.3008940104302535      40.436156179930528      2.1312965000000026
   200   1      4.9958071575677243      37.559287446104939      3.7362365000000031
   201   1      5.0337837899681404       39.16775168443916       2.602632500000003
   202   1      6.5469664202107865      40.150147662829639      3.9223565000000034
   203   1      7.5954661053532151      41.618829313293404      3.3043265000000033
   204   1      3.9677827031684787      43.054574832939437      3.5377265000000029
   205   1       5.389981795609736      42.997013417510331      2.4427115000000028
   206   1      6.8921469175600985      42.975220864969273      2.0306495000000031
   207   1      7.7036258913971078      37.584525739931543      3.7081565000000025
   208   1      5.5880264584274002       41.36294667694046      3.6830465000000028
   209   1       6.294808047321915      44.955795186142076      2.4644495000000028
   210   1      7.1465969484322844      38.879832197290824      2.4971645000000029
   211   2      6.3451084436565113      38.381713498923759       2.826411500000003
   212   2      6.2617303963252828      43.392539253330263      2.6447855000000029
   213   2      4.1848796577477261        39.6657205028025      2.7050435000000026
   214   2      6.3388355372354406      40.860196686458416       3.300006500000003
   215   2      4.1539391045395639       44.63707535822904      3.3196865000000031
   216   2        4.18568824180291      42.154650326596524      3.2040665000000028
   217   1      8.9178799635984429      2.9661552496423562      2.1312965000000026
   218   1      9.6127931107359146    0.089286515816765083      3.7362365000000031
   219   1      9.6507697431363297      1.6977507541509849       2.602632500000003
   220   1      11.163952373378976      2.6801467325414658      3.9223565000000034
   221   1      12.212452058521404      4.1488283830052275      3.3043265000000033
   222   1       8.584768656336669      5.5845739026512655      3.5377265000000029
   223   1      10.006967748777924       5.527012487222156      2.4427115000000028
   224   1      11.509132870728287      5.5052199346811008      2.0306495000000031
   225   1      12.320611844565297     0.11452480964336997      3.7081565000000025
   226   1       10.20501241159559      3.8929457466522894      3.6830465000000028
   227   1      10.911794000490104       7.485794255853901      2.4644495000000028
   228   1      11.763582901600474      1.4098312670026505      2.4971645000000029
   229   2        10.9620943968247      0.9117125686355857       2.826411500000003
   230   2      10.878716349493473       5.922538323042092      2.6447855000000029
   231   2      8.8018656109159146      2.1957195725143288      2.7050435000000026
   232   2      10.955821490403629      3.3901957561702409       3.300006500000003
   233   2      8.7709250577077533      7.1670744279408698      3.3196865000000031
   234   2      8.8026741949711003      4.6846493963083482      3.2040665000000028
   235   1      8.8444427729648059       10.46015543569999      2.1312965000000026
   236   1      9.5393559201022775      7.5832867018743988      3.7362365000000031
   237   1      9.5773325525026927      9.1917509402086193       2.602632500000003
   238   1      11.090515182745339      10.174146918599099      3.9223565000000034
   239   1      12.139014867887767      11.642828569062861      3.3043265000000033
   240   1      8.5113314657030319      13.078574088708898      3.5377265000000029
   241   1      9.9335305581442874      13.021012673279792      2.4427115000000028
   242   1       11.43569568009465      12.999220120738734      2.0306495000000031
   243   1       12.24717465393166      7.6085249957010044      3.7081565000000025
   244   1      10.131575220961953      11.386945932709924      3.6830465000000028
   245   1      10.838356809856467      14.979794441911535      2.4644495000000028
   246   1      11.690145710966837      8.9038314530602847      2.4971645000000029
   247   2      10.888657206191063      8.4057127546932193       2.826411500000003
   248   2      10.805279158859836      13.416538509099727      2.6447855000000029
   249   2      8.7284284202822775      9.6897197585719628      2.7050435000000026
   250   2      10.882384299769992      10.884195942227874       3.300006500000003
   251   2      8.6974878670741163      14.661074613998506      3.3196865000000031
   252   2      8.7292370043374632      12.178649582365979      3.2040665000000028
   253   1       8.771005582331167      17.954155621757625      2.1312965000000026
   254   1      9.4659187294686369      15.077286887932033      3.7362365000000031
   255   1      9.5038953618690538      16.685751126266254       2.602632500000003
   256   1        11.0170779921117      17.668147104656732      3.9223565000000034
   257   1      12.065577677254129      19.136828755120497      3.3043265000000033
   258   1       8.437894275069393      20.572574274766534      3.5377265000000029
   259   1      9.8600933675106468      20.515012859337425      2.4427115000000028
   260   1      11.362258489461011      20.493220306796367      2.0306495000000031
   261   1      12.173737463298021      15.102525181758638      3.7081565000000025
   262   1      10.058138030328314      18.880946118767557      3.6830465000000028
   263   1      10.764919619222828       22.47379462796917      2.4644495000000028
   264   1      11.616708520333198      16.397831639117918      2.4971645000000029
   265   2      10.815220015557426      15.899712940750854       2.826411500000003
   266   2      10.731841968226195       20.91053869515736      2.6447855000000029
   267   2      8.6549912296486387      17.183719944629598      2.7050435000000026
   268   2      10.808947109136353      18.378196128285509       3.300006500000003
   269   2      8.6240506764404774      22.155074800056138      3.3196865000000031
   270   2      8.6557998137038226      19.672649768423618      3.2040665000000028
   271   1      8.6975683916975299      25.448155807815255      2.1312965000000026
   272   1      9.3924815388349998      22.571287073989669      3.7362365000000031
   273   1      9.4304581712354167      24.179751312323887       2.602632500000003
   274   1      10.943640801478063      25.162147290714369      3.9223565000000034
   275   1      11.992140486620492       26.63082894117813      3.3043265000000033
   276   1       8.364457084435756      28.066574460824167      3.5377265000000029
   277   1      9.7866561768770115      28.009013045395054      2.4427115000000028
   278   1      11.288821298827376      27.987220492854004      2.0306495000000031
   279   1      12.100300272664384      22.596525367816277      3.7081565000000025
   280   1      9.9847008396946766       26.37494630482519      3.6830465000000028
   281   1      10.691482428589191      29.967794814026803      2.4644495000000028
   282   1      11.543271329699561      23.891831825175551      2.4971645000000029
   283   2      10.741782824923789      23.393713126808489       2.826411500000003
   284   2      10.658404777592558      28.404538881214997      2.6447855000000029
   285   2      8.5815540390150016      24.677720130687231      2.7050435000000026
   286   2      10.735509918502716      25.872196314343142       3.300006500000003
   287   2      8.5506134858068403      29.649074986113774      3.3196865000000031
   288   2      8.5823626230701855      27.166649954481251      3.2040665000000028
   289   1      8.6241312010638911      32.942155993872895      2.1312965000000026
   290   1      9.3190443482013627      30.065287260047302      3.7362365000000031
   291   1      9.3570209806017779      31.673751498381517       2.602632500000003
   292   1      10.870203610844424      32.656147476771999      3.9223565000000034
   293   1      11.918703295986852      34.124829127235763      3.3043265000000033
   294   1      8.2910198938021171      35.560574646881804      3.5377265000000029
   295   1      9.7132189862433727      35.503013231452691      2.4427115000000028
   296   1      11.215384108193735       35.48122067891164      2.0306495000000031
   297   1      12.026863082030745      30.090525553873906      3.7081565000000025
   298   1      9.9112636490610377      33.868946490882827      3.6830465000000028
   299   1      10.618045237955553      37.461795000084436      2.4644495000000028
   300   1      11.469834139065922      31.385832011233184      2.4971645000000029
   301   2      10.668345634290148      30.887713312866122       2.826411500000003
   302   2      10.584967586958921       35.89853906727263      2.6447855000000029
   303   2      8.5081168483813627      32.171720316744867      2.7050435000000026
   304   2      10.662072727869077      33.366196500400775       3.300006500000003
   305   2      8.4771762951732015      37.143075172171407      3.3196865000000031
   306   2      8.5089254324365484      34.660650140538884      3.2040665000000028
   307   1       8.550694010430254      40.436156179930528      2.1312965000000026
   308   1      9.2456071575677257      37.559287446104939      3.7362365000000031
   309   1      9.2835837899681408       39.16775168443916       2.602632500000003
   310   1      10.796766420210787      40.150147662829639      3.9223565000000034
   311   1      11.845266105353215      41.618829313293404      3.3043265000000033
   312   1      8.2175827031684801      43.054574832939437      3.5377265000000029
   313   1      9.6397817956097356      42.997013417510331      2.4427115000000028
   314   1      11.141946917560098      42.975220864969273      2.0306495000000031
   315   1      11.953425891397108      37.584525739931543      3.7081565000000025
   316   1      9.8378264584274007       41.36294667694046      3.6830465000000028
   317   1      10.544608047321915      44.955795186142076      2.4644495000000028
   318   1      11.396396948432285      38.879832197290824      2.4971645000000029
   319   2      10.594908443656511      38.381713498923759       2.826411500000003
   320   2      10.511530396325284      43.392539253330263      2.6447855000000029
   321   2      8.4346796577477257        39.6657205028025      2.7050435000000026
   322   2       10.58863553723544      40.860196686458416       3.300006500000003
   323   2      8.4037391045395644       44.63707535822904      3.3196865000000031
   324   2      8.4354882418029113      42.154650326596524      3.2040665000000028
   325   1       13.16767996359844      2.9661552496423562      2.1312965000000026
   326   1      13.862593110735911    0.089286515816765083      3.7362365000000031
   327   1       13.90056974313633      1.6977507541509849       2.602632500000003
   328   1      15.413752373378973      2.6801467325414658      3.9223565000000034
   329   1      16.462252058521404      4.1488283830052275      3.3043265000000033
   330   1      12.834568656336668      5.5845739026512655      3.5377265000000029
   331   1      14.256767748777923       5.527012487222156      2.4427115000000028
   332   1      15.758932870728286      5.5052199346811008      2.0306495000000031
   333   1      16.570411844565296     0.11452480964336997      3.7081565000000025
   334   1       14.45481241159559      3.8929457466522894      3.6830465000000028
   335   1      15.161594000490103       7.485794255853901      2.4644495000000028
   336   1      16.013382901600473      1.4098312670026505      2.4971645000000029
   337   2        15.2118943968247      0.9117125686355857       2.826411500000003
   338   2       15.12851634949347       5.922538323042092      2.6447855000000029
   339   2      13.051665610915913      2.1957195725143288      2.7050435000000026
   340   2      15.205621490403628      3.3901957561702409       3.300006500000003
   341   2      13.020725057707754      7.1670744279408698      3.3196865000000031
   342   2      13.052474194971099      4.6846493963083482      3.2040665000000028
   343   1      13.094242772964803       10.46015543569999      2.1312965000000026
   344   1      13.789155920102274      7.5832867018743988      3.7362365000000031
   345   1      13.827132552502693      9.1917509402086193       2.602632500000003
   346   1      15.340315182745337      10.174146918599099      3.9223565000000034
   347   1      16.388814867887767      11.642828569062861      3.3043265000000033
   348   1      12.761131465703032      13.078574088708898      3.5377265000000029
   349   1      14.183330558144286      13.021012673279792      2.4427115000000028
   350   1       15.68549568009465      12.999220120738734      2.0306495000000031
   351   1      16.496974653931659      7.6085249957010044      3.7081565000000025
   352   1      14.381375220961953      11.386945932709924      3.6830465000000028
   353   1      15.088156809856466      14.979794441911535      2.4644495000000028