LAMMPS data file via write_data, version 29 Oct 2020, timestep = 100000

600 atoms
2 atom types

1.1727992967665841 26.947201065732415 xlo xhi
1.825493403384133 41.94403758661804 ylo yhi
0.0 30.0 zlo zhi
0.8774207176656944 0.0 0.0 xy xz yz

Masses

1 1.008
2 15.999

Atoms # atomic

2 1 3.0604283041416065 3.4560362184191975 3.036087297015269 0 0 0
4 1 4.25725883637191 2.774628486166571 2.201764095056258 0 0 0
6 1 1.7575685121847364 4.82056274752834 3.912286552725197 0 0 0
8 1 2.9050665234318855 5.434188486212518 2.9686990857909263 0 0 0
10 1 5.69518723472886 3.487832683607036 3.0168703672234063 0 0 0
12 1 6.837787426529623 2.7375258401102034 2.153112832428172 0 0 0
14 1 4.334030259703825 4.829571052907667 3.9699033659582796 0 0 0
16 1 5.449690156385175 5.4645213584377075 2.9833003885139955 0 0 0
18 2 3.5556767618892167 2.607037690814466 2.844638686771788 0 0 0
20 2 2.357358959628773 4.60934324912999 3.1893827478484074 0 0 0
22 2 6.123529777613169 2.601923663603605 2.7937027271071866 0 0 0
24 2 4.938779315060924 4.644283004226876 3.232449228830954 0 0 0
126 1 6.9584340597653185 4.749633637959466 3.9850476239046237 0 0 0
140 2 7.5447147130914844 4.6244401601449185 3.2265154485543968 0 0 0
492 1 1.6573881629650367 2.7619378612254293 2.13937054825515 0 0 0
1 1 4.320750066169862 6.766028838554983 2.087691776668533 0 0 0
3 1 3.1637191156216273 7.4608809778392855 2.981647679633141 0 0 0
5 1 1.8181637377447317 8.794956825005428 3.9409980944979193 0 0 0
7 1 2.9325636666053856 9.448395852611455 2.9757469682646174 0 0 0
9 1 6.856552141626849 6.795040859897543 2.0876222959756787 0 0 0
11 1 5.761997397911603 7.457055224003734 2.9969891872126833 0 0 0
13 1 4.3918330687624865 8.808628997076216 3.8972979202978677 0 0 0
15 1 5.54101511262113 9.442542589136941 3.0091724993903983 0 0 0
17 2 3.617369972799933 6.597060327501965 2.737411668954162 0 0 0
19 2 2.4489080735791213 8.59658136975683 3.244765510863904 0 0 0
21 2 6.216712943895213 6.595170275081879 2.7704649724309176 0 0 0
23 2 5.037553015771171 8.591878458986596 3.2177647776183345 0 0 0
489 1 1.7705218093296817 6.711029363905633 2.110078558738681 0 0 0
139 2 7.599458086773731 8.626783609590131 3.2360756151786902 0 0 0
42 2 3.739742398631593 10.577308496439864 2.768342940304901 0 0 0
46 2 6.282149417741524 10.610481244440614 2.800825802407034 0 0 0
125 1 6.913844988375039 8.765022467533933 3.908816886985502 0 0 0
28 1 4.473902758271653 10.654069660926362 2.154899867040216 0 0 0
25 1 4.496240817273167 14.795847697426916 2.2099386728743045 0 0 0
26 1 3.3227171901197243 11.45985818192465 2.952096831201048 0 0 0
30 1 1.8457867758243935 12.721320734008522 3.826325225464351 0 0 0
32 1 2.998689932747019 13.479741584218276 3.0212745571431934 0 0 0
33 1 7.1155069208230595 14.758690173257973 2.1491959891599457 0 0 0
34 1 5.824859655519115 11.497564329683268 3.0036675027614637 0 0 0
38 1 4.4662786171473146 12.837019515415799 3.8602153898025082 0 0 0
40 1 5.64271169583176 13.46459389155564 2.976126885012094 0 0 0
41 2 3.8077152858167844 14.623770086732625 2.8487132589322925 0 0 0
44 2 2.5743820647053415 12.604293855388294 3.2044604857981622 0 0 0
45 2 6.393021993685835 14.636277805936382 2.784798786842411 0 0 0
48 2 5.112051605810163 12.63780121040307 3.1774398744904535 0 0 0
150 1 7.0382494799290845 12.832344419108857 3.9208409412066256 0 0 0
164 2 7.701108096516572 12.64050855981841 3.2491239345668537 0 0 0
513 1 1.9460214193088698 14.847281708826669 2.0885433885316615 0 0 0
36 1 7.011825815173644 10.772790244181484 2.1779603484983063 0 0 0
516 1 1.873452731238648 10.792384852850006 2.1396300374705564 0 0 0
27 1 3.360680134565928 15.494365453539839 3.0877363278746746 0 0 0
29 1 1.9732222645980142 16.898990486893407 3.8893179017939463 0 0 0
31 1 3.1812022941243017 17.481589698077144 3.007014406586114 0 0 0
35 1 5.973564415249653 15.512042270991785 3.019123472772081 0 0 0
37 1 4.650420045834314 16.87900470041903 3.971163702255178 0 0 0
39 1 5.760974289049302 17.465478586775138 3.0131769643431876 0 0 0
43 2 2.623390215034973 16.66244781016816 3.2127900426878893 0 0 0
47 2 5.2184188399122595 16.651107122861582 3.219975408719809 0 0 0
50 1 3.501098871533995 19.53155831494709 3.048158577110619 0 0 0
52 1 4.656293977184466 18.77707545979976 2.1998603779269983 0 0 0
58 1 6.080298989898513 19.535465157270263 2.9577582864792196 0 0 0
60 1 7.199549619126742 18.727104166042192 2.0860583552969474 0 0 0
66 2 3.9149691088088807 18.652372536520996 2.807827380926771 0 0 0
70 2 6.489843229100435 18.6554702142817 2.719225988118408 0 0 0
149 1 7.17905395486461 16.790328026755116 3.941681868874431 0 0 0
163 2 7.783321980467516 16.644252274331233 3.202559419385007 0 0 0
540 1 2.048266943287106 18.814225913307165 2.16246638660423 0 0 0
49 1 4.628903771318412 22.892580980860345 2.0615852958758816 0 0 0
51 1 3.528304607717539 23.513844060610214 3.027210348065322 0 0 0
54 1 2.1692035648815375 20.897304782438205 3.950875409040705 0 0 0
56 1 3.261368463705765 21.499638147213794 2.964664333974879 0 0 0
57 1 7.308633975542347 22.835635005795986 2.1786062651316906 0 0 0
59 1 6.18408459324867 23.51753772321416 3.0082001688947626 0 0 0
62 1 4.705450464321282 20.88919271926479 3.9375828669608186 0 0 0
64 1 5.827910709284121 21.53473460286792 2.990666661962928 0 0 0
65 2 3.9998476011428505 22.6656605527105 2.7651629328216165 0 0 0
68 2 2.7527386776740257 20.67270086904722 3.2241189991153725 0 0 0
69 2 6.589992068206226 22.648922159400875 2.775115772385381 0 0 0
72 2 5.351836179618053 20.67732324773235 3.23559750652846 0 0 0
174 1 7.184760947408314 20.773497783250555 3.899652454192229 0 0 0
188 2 7.901841961023578 20.65084329580602 3.2536774172439533 0 0 0
537 1 2.100419079179328 22.824701949995674 2.0421211194277573 0 0 0
53 1 2.146705872764695 24.84298196255595 3.939083331072475 0 0 0
55 1 3.3339773041875347 25.52288871441872 3.0770759350354737 0 0 0
61 1 4.77123298193507 24.79469627900537 3.9882787436930114 0 0 0
63 1 5.910945849975327 25.490289538517775 3.0773079794534746 0 0 0
67 2 2.807649375075107 24.68143089136479 3.2626430957465637 0 0 0
71 2 5.389338414092388 24.65242637830924 3.2554547254687995 0 0 0
74 1 3.664258673542172 27.519982973497967 3.032523925096029 0 0 0
76 1 4.825833586405924 26.801958958430195 2.183122101365493 0 0 0
82 1 6.251503976816097 27.54548309767789 3.068768960890857 0 0 0
84 1 7.394330064730067 26.84562591206107 2.2062280211058165 0 0 0
90 2 4.097606504998444 26.654794319461438 2.7963047690693004 0 0 0
94 2 6.668294866486851 26.660506812559774 2.814911367497588 0 0 0
173 1 7.425348730139113 24.88256561260975 3.9217824887975556 0 0 0
187 2 7.994433383385744 24.677139373879886 3.162949415167332 0 0 0
564 1 2.2302125024682677 26.736121083518242 2.136421223082 0 0 0
73 1 4.8378863666240965 30.862356453923606 2.1264215085776117 0 0 0
75 1 3.7215990443308113 31.5310149143873 3.0706097662645506 0 0 0
77 1 2.3042851885873494 32.89100449164829 3.9097820274195496 0 0 0
78 1 2.308016664300136 28.883758583983322 3.9207238156011295 0 0 0
80 1 3.4471351252533045 29.491981365632437 2.965231234976758 0 0 0
81 1 7.479911689209317 30.860751989710312 2.128763542801626 0 0 0
83 1 6.3014442767387076 31.511991131414423 3.0218239808088474 0 0 0
85 1 5.007662655386783 32.90124349425834 3.925776012416788 0 0 0
86 1 4.908199872938813 28.835822576322517 3.9606427179810533 0 0 0
88 1 6.005713536384908 29.5080409150391 2.989692711585897 0 0 0
89 2 4.17901107183176 30.673993591966322 2.8141908372608913 0 0 0
91 2 2.9841642274448383 32.68666322723387 3.2481158251531235 0 0 0
92 2 2.9054159992281416 28.672110406248382 3.191317666042464 0 0 0
93 2 6.780669370696399 30.66551836583992 2.770550030551352 0 0 0
95 2 5.575963996577703 32.69174401039598 3.1823913895558054 0 0 0
96 2 5.484000023517821 28.686791619526026 3.2017311094525103 0 0 0
197 1 7.566674328929664 32.8530915114223 3.9570885554951265 0 0 0
198 1 7.502688819523617 28.94216272126964 3.938161329745892 0 0 0
211 2 8.172326931721548 32.6917041427032 3.219374305999396 0 0 0
212 2 8.082660718348382 28.691926822298495 3.2177425605020424 0 0 0
561 1 2.293956934145645 30.825341814628548 2.100111930960406 0 0 0
79 1 3.489349455096366 33.533791685733064 3.0405498980148704 0 0 0
87 1 6.117116042712086 33.50623834603243 2.961448801323443 0 0 0
98 1 3.8209601048626523 35.541177362663575 3.020147748961727 0 0 0
100 1 4.944186332043485 34.84093886401308 2.1282775499700617 0 0 0
102 1 2.4702929074450597 36.974916086841404 3.9094490428460587 0 0 0
106 1 6.40988338888882 35.527402781266545 2.9938011622205343 0 0 0
108 1 7.531284949420439 34.84076970604515 2.1034791260186276 0 0 0
110 1 4.985261555224602 36.87280622711779 3.89487309888968 0 0 0
114 2 4.251324308288292 34.67363897498039 2.7792949013524746 0 0 0
116 2 3.092309286180912 36.72673006473106 3.2079452546472353 0 0 0
118 2 6.86044810369571 34.669016721905834 2.7799622108940785 0 0 0
120 2 5.670284141578971 36.667973027179926 3.2313447793757315 0 0 0
222 1 7.622697632841266 36.85654814010921 3.937271766788516 0 0 0
236 2 8.234125481290071 36.7129777016078 3.2034390547677707 0 0 0
588 1 2.3513860130120223 34.87427689036072 2.177677947278903 0 0 0
97 1 5.129149392467834 38.83960877254064 2.1904061047584826 0 0 0
99 1 3.9036569917903976 39.56663660637844 2.951068283627778 0 0 0
101 1 2.5598823288704455 40.91346266459625 3.8325736282467795 0 0 0
103 1 3.7258887282613116 41.5622972038329 2.942155338972926 0 0 0
104 1 3.5986046560509015 37.57068859071636 2.9859577008279183 0 0 0
105 1 7.644754165665186 38.86816798486922 2.1770030762768857 0 0 0
107 1 6.494241021522816 39.58424008820245 3.021323492507364 0 0 0
109 1 5.14117233322658 40.91857095591888 3.9546582255787723 0 0 0
111 1 6.254509824615807 41.57220547504208 3.0329579613515825 0 0 0
112 1 6.127835311236431 37.53194896282682 3.002434249148918 0 0 0
113 2 4.368206232047355 38.680620096053474 2.7727428546970017 0 0 0
115 2 3.1948095853765555 40.71737558439888 3.133073128139755 0 0 0
117 2 6.895899221292278 38.70250309059669 2.774060360867424 0 0 0
119 2 5.751384005210967 40.72808255040849 3.2290462228351955 0 0 0
221 1 7.6635972666802274 40.92666257907872 3.8835307542269772 0 0 0
235 2 8.33054281809992 40.73193868352867 3.2177371626611726 0 0 0
585 1 2.4250698139378226 38.8463128869368 2.0662654112595855 0 0 0
122 1 8.26830410448979 3.49855166646401 3.00619363379475 0 0 0
124 1 9.398635136526117 2.743493405692277 2.1375548035878627 0 0 0
128 1 8.030491908892586 5.486451834489703 3.021472815309574 0 0 0
130 1 10.84835282852613 3.4646894315853727 3.0465763327394932 0 0 0
132 1 11.978503445396077 2.81424753284107 2.1449749602036765 0 0 0
134 1 9.466151083641357 4.778102380470839 3.952009795691093 0 0 0
136 1 10.591049623927885 5.476598958599897 3.0601943052787703 0 0 0
138 2 8.697535437023374 2.6044549266016483 2.786334147414382 0 0 0
142 2 11.285284436867178 2.5989223261737378 2.7677934304124037 0 0 0
144 2 10.12034040219549 4.620180857075975 3.2602068763309693 0 0 0
242 1 13.467883822160417 3.4426626555854676 2.967149334105591 0 0 0
246 1 12.06233360535651 4.754082817032147 3.900693299613433 0 0 0
248 1 13.225659792292324 5.435867295238652 3.0049026562191252 0 0 0
258 2 13.874783757264455 2.5662592348220583 2.7296793053717114 0 0 0
260 2 12.716174897129793 4.5857077935465576 3.210786252105501 0 0 0
121 1 9.497163713155478 6.722358435746899 2.1120904266945795 0 0 0
123 1 8.366658684122054 7.482075005067005 2.9867042709861336 0 0 0
127 1 8.092982089260794 9.482512377542218 3.060738296607938 0 0 0
129 1 12.118597327231392 6.73658552979113 2.1680198452242525 0 0 0
131 1 10.907565247890458 7.480819404943727 2.9875155664183337 0 0 0
133 1 9.524075145992988 8.748394708766668 3.985012041732788 0 0 0
135 1 10.617348311383099 9.461342924569681 3.0306071004530177 0 0 0
137 2 8.775892740839499 6.595705328758851 2.7468717537765373 0 0 0
141 2 11.371783344812403 6.6116819517108665 2.7725822043025783 0 0 0
143 2 10.150543708218624 8.613255775196633 3.256611287857979 0 0 0
282 2 14.031184308852284 10.593761742536618 2.7776623358387216 0 0 0
259 2 12.753851227208836 8.592973660880233 3.2496291199880782 0 0 0
162 2 8.8540918378806 10.624060643610417 2.753766532271951 0 0 0
166 2 11.444221708745784 10.582646729425925 2.8338198367126064 0 0 0
243 1 13.531688443991392 7.506677024921565 3.042451858206502 0 0 0
245 1 12.143259905047932 8.85172898765345 3.955246097799379 0 0 0
247 1 13.282752163841929 9.427194220799407 3.023375692974718 0 0 0
257 2 13.938404681020383 6.617677217276021 2.7744095660987176 0 0 0
156 1 12.119052724406997 10.74028513874031 2.161537455349769 0 0 0
145 1 9.668610052514849 14.771732108794302 2.1826495410371667 0 0 0
146 1 8.4249913423144 11.505639099374013 3.0154553397884536 0 0 0
152 1 8.196022175148428 13.47484975144033 3.005994604938001 0 0 0
153 1 12.267754847318537 14.739096987053989 2.1677022879211214 0 0 0
154 1 10.972747833935983 11.444495098243127 3.0395913276806197 0 0 0
158 1 9.727426073088697 12.891018920980196 3.9488753776866274 0 0 0
160 1 10.83372961099665 13.422019063941326 2.9647504623627925 0 0 0
161 2 8.961732184616215 14.628997350920983 2.824532416178788 0 0 0
165 2 11.535646602734092 14.621095804524563 2.773078650199117 0 0 0
168 2 10.259899966018985 12.627334290883503 3.1947313532329504 0 0 0
266 1 13.607346442148781 11.4733650152328 3.0212775684387423 0 0 0
270 1 12.238891100820522 12.71263562514495 3.9735023367888918 0 0 0
272 1 13.334895280389535 13.453858536377004 3.0763374780718227 0 0 0
281 2 14.096992755863557 14.599994503167437 2.813417128557612 0 0 0
284 2 12.838417859017913 12.594311532637063 3.2310646381663877 0 0 0
148 1 9.49555413499889 10.751414259180587 2.044988926101758 0 0 0
147 1 8.515414970448907 15.527742409044544 3.00201270983647 0 0 0
151 1 8.293885668781751 17.489413027818358 2.9922307114446096 0 0 0
155 1 11.15224047607289 15.527954374154188 3.014246943326583 0 0 0
157 1 9.776367357795976 16.775855564752035 4.006535562633765 0 0 0
159 1 10.877321344236682 17.51665594706691 3.062908806478755 0 0 0
167 2 10.352838265940886 16.639589581158067 3.241990437899704 0 0 0
170 1 8.650163394925674 19.520321575747467 2.9229061140405395 0 0 0
172 1 9.740401517298011 18.737335686482854 2.0640254665980695 0 0 0
178 1 11.159536032550982 19.506355076489857 3.0002315526353383 0 0 0
180 1 12.299819723649847 18.70186390129381 2.154747282383937 0 0 0
186 2 9.049913426055829 18.62389541465916 2.723955414960523 0 0 0
190 2 11.601651916886762 18.60880255171436 2.823676288947663 0 0 0
267 1 13.638587967255164 15.497059718465415 2.9962347216498473 0 0 0
269 1 12.335848610840564 16.86248479214389 3.978911145912543 0 0 0
271 1 13.425281997086689 17.495187766594082 3.0021231659372565 0 0 0
283 2 12.9537319768919 16.64236619056476 3.2646101441608386 0 0 0
290 1 13.779091049828843 19.497905089483417 2.98851151613349 0 0 0
306 2 14.222977577060599 18.609920726106555 2.78349978191844 0 0 0
169 1 9.867335303610725 22.75860616859964 2.1568419082309163 0 0 0
171 1 8.759989406526383 23.51923988002017 3.0261383651540372 0 0 0
176 1 8.329254835008484 21.537223477162343 3.05908969744404 0 0 0
177 1 12.489704290208412 22.8512245793006 2.285642599716855 0 0 0
179 1 11.275963835955649 23.542209936219017 3.034179130855223 0 0 0
182 1 9.786337656251916 20.84198025102238 3.833371514407547 0 0 0
184 1 10.97140619872998 21.486429694008653 3.0168089234125284 0 0 0
185 2 9.18055505034637 22.638285898063913 2.8381751230047323 0 0 0
189 2 11.71460531191563 22.665013646323597 2.823567974654517 0 0 0
192 2 10.454174828177466 20.640493050661725 3.1662577366917657 0 0 0
291 1 13.922485390806575 23.53946375353079 2.972336107867764 0 0 0
294 1 12.456225958960745 20.79616145997881 3.951527674637855 0 0 0
296 1 13.524744324200162 21.45423557165592 2.9942959123195827 0 0 0
305 2 14.280285538499244 22.633985497674562 2.7385670446553703 0 0 0
308 2 13.019740925632728 20.60788450346537 3.1861837219309908 0 0 0
175 1 8.51527921070386 25.52151096523368 2.9267214082051134 0 0 0
181 1 9.983970196346961 24.928550435801625 3.867832359839592 0 0 0
183 1 11.085958942098607 25.54046601038481 2.901524542656279 0 0 0
191 2 10.608995577747603 24.698210679704914 3.1975881874979653 0 0 0
194 1 8.828645301855525 27.56985213190049 3.0527643731461116 0 0 0
196 1 9.949669551007913 26.85470978556886 2.0930391910776454 0 0 0
202 1 11.429494661024915 27.554147123029516 3.02786437423607 0 0 0
204 1 12.527133430185817 26.873811445023417 2.090880646110669 0 0 0
210 2 9.27063029940665 26.690842239165203 2.771149477115926 0 0 0
214 2 11.879927875739577 26.684813058821415 2.7886548936507927 0 0 0
293 1 12.469870047883317 24.888222441229917 3.8435615438886783 0 0 0
295 1 13.650869112309238 25.52995205605068 2.959323104447849 0 0 0
307 2 13.194723904493273 24.684296841121927 3.232107485388742 0 0 0
314 1 13.979616493818858 27.519123320436687 3.0042102191362834 0 0 0
330 2 14.419538785457547 26.669017765992745 2.7338225095142334 0 0 0
193 1 10.036224493486609 30.818082490271514 2.144440705539425 0 0 0
195 1 8.920157832007217 31.50796404809012 3.0423852501191306 0 0 0
200 1 8.575063708175865 29.525029312849703 2.933936954401984 0 0 0
201 1 12.68693175767863 30.78798661607816 2.1791557387446616 0 0 0
203 1 11.51067786516941 31.54269815459059 2.9634417553078274 0 0 0
205 1 10.12282819716781 32.86648158688472 3.9500587716930733 0 0 0
206 1 10.015466042851045 28.888973805363555 3.8617703911067833 0 0 0
208 1 11.175623007374353 29.522367296737524 2.9701462378959733 0 0 0
209 2 9.370400389277522 30.6640395026607 2.823120314649772 0 0 0
213 2 11.91197378294835 30.666295324084622 2.7396402125169823 0 0 0
215 2 10.745975855496269 32.66899222191621 3.2311723966914463 0 0 0
216 2 10.688478976937741 28.674020867136097 3.2157165841506385 0 0 0
315 1 14.073840313914344 31.58434612910461 3.0600505360390144 0 0 0
317 1 12.63392118513153 32.852760643887905 3.9311938438370313 0 0 0
318 1 12.580907449399865 28.857328061541427 3.9518690574152577 0 0 0
320 1 13.74097762072633 29.535726935326597 3.0810510226848176 0 0 0
329 2 14.484162309083258 30.70664705117075 2.7516688509827736 0 0 0
331 2 13.333071431514927 32.71738339312786 3.2766027347844893 0 0 0
332 2 13.247410407797748 28.693743862802958 3.267056560666697 0 0 0
199 1 8.695392668659345 33.53681593780459 3.021403845204585 0 0 0
207 1 11.215795906106422 33.52844587819543 2.966769545809658 0 0 0
218 1 8.95518601754519 35.56995955589085 3.0413297347343975 0 0 0
220 1 10.092951114051209 34.80628032802731 2.1591983947221447 0 0 0
226 1 11.56904877133742 35.52895728674869 2.9622577544360085 0 0 0
228 1 12.714121367597432 34.84551050195742 2.1113357632484275 0 0 0
230 1 10.248286339410116 36.8761586406077 3.966836732642456 0 0 0
234 2 9.408414668335055 34.68048070888767 2.833007696419301 0 0 0
238 2 12.014334004675925 34.667191542005696 2.7631213697430157 0 0 0
240 2 10.815044240780852 36.69730227373661 3.2191979894969447 0 0 0
319 1 13.823702093494006 33.5749836773992 3.0854399625252293 0 0 0
338 1 14.198637194155571 35.56765555513944 2.982156063460294 0 0 0
342 1 12.800576601795886 36.85708505620356 3.9319779545010776 0 0 0
354 2 14.598503312577996 34.67987857360434 2.766666452007369 0 0 0
356 2 13.383726366391961 36.69376412356333 3.1868383839305006 0 0 0
217 1 10.107203326985774 38.870805243735944 2.130431751668083 0 0 0
219 1 9.03671271275887 39.56225974151879 3.099042572009168 0 0 0
223 1 8.835761293662365 41.56953229045057 2.9938030878000816 0 0 0
224 1 8.766398289149445 37.55853403164848 3.0012910545084295 0 0 0
225 1 12.83557956790693 38.80450855581432 2.249558304997189 0 0 0
227 1 11.629509750800352 39.61090106199296 2.9840076475152277 0 0 0
229 1 10.293160023375055 40.960817642646745 3.918064652348811 0 0 0
231 1 11.400938930371982 41.55914819770889 2.9392987162146453 0 0 0
232 1 11.317882071111145 37.5448491897708 3.0204852769607555 0 0 0
233 2 9.477905990636067 38.702152347683494 2.8355823581653916 0 0 0
237 2 12.053034452180306 38.7096658612417 2.8088052148408877 0 0 0
239 2 10.86581289698427 40.740030510755005 3.1494729335757814 0 0 0
339 1 14.218387956032618 39.58434084594633 3.019818307503713 0 0 0
341 1 12.81397627948363 40.934958190195346 3.898116342331096 0 0 0
343 1 13.95887289557877 41.561744374061135 2.966142643538715 0 0 0
344 1 13.893001605158547 37.52647634877874 2.9869518562227757 0 0 0
353 2 14.652398298321726 38.71645973414191 2.7731478974291246 0 0 0
355 2 13.500054972819182 40.71687717252938 3.2449934578159123 0 0 0
244 1 14.605920861931713 2.6704327366493104 2.106751113005083 0 0 0
250 1 15.994204459686047 3.494909504451563 3.0348246677416295 0 0 0
252 1 17.144559382772155 2.7616357451349423 2.153363479568078 0 0 0
254 1 14.711465110935128 4.899123338003683 3.94973065581702 0 0 0
256 1 15.782348997555589 5.444016165545452 2.894444625717886 0 0 0
262 2 16.428168416215673 2.617149311711142 2.787666380261676 0 0 0
264 2 15.266199782528338 4.638291150950016 3.2117211202221214 0 0 0
362 1 18.600006311275802 3.541684219196355 2.969787237809626 0 0 0
364 1 19.69798343907628 2.728291340720433 2.099119343404699 0 0 0
366 1 17.221319577981898 4.804142720665977 3.9584662003915376 0 0 0
368 1 18.298360054928903 5.5241082434985715 3.015400219002186 0 0 0
374 1 19.82247225719125 4.870540069132246 3.9521663016301503 0 0 0
378 2 19.003233945493452 2.6318025578023487 2.7566448506221293 0 0 0
380 2 17.84754364148634 4.648159585584506 3.2354129417782667 0 0 0
384 2 20.426029567626603 4.632661486985041 3.2221130593275666 0 0 0
241 1 14.623401390993045 6.759422798141664 2.1035354150949357 0 0 0
249 1 17.106141328908997 6.83080785223368 2.0153672864540813 0 0 0
251 1 16.07361264905383 7.502076972359692 3.010394431426995 0 0 0
253 1 14.743992200760594 8.846592426407089 3.9276063146188473 0 0 0
255 1 15.881119320363595 9.491075244766954 3.0078861720589423 0 0 0
261 2 16.516885264185216 6.623967889316566 2.7541565155989467 0 0 0
263 2 15.368514314638476 8.633166158389338 3.2210424442548122 0 0 0
402 2 19.179254435279564 10.6014867660789 2.813604779072527 0 0 0
383 2 20.503936262190386 8.62586432735738 3.2021522285128765 0 0 0
286 2 16.61659286213034 10.626887316642028 2.8061970524333093 0 0 0
361 1 19.789016864085653 6.719083239263151 2.1227370775139485 0 0 0
363 1 18.637126705561794 7.498897077806553 2.969166413155964 0 0 0
365 1 17.32724197863244 8.785356040920234 3.9247941267750712 0 0 0
367 1 18.407214538671212 9.466731916820498 2.9699126318462157 0 0 0
373 1 19.861129813288603 8.805748997543361 3.8901596885190184 0 0 0
377 2 19.107574595319058 6.626718505561541 2.809265613156666 0 0 0
379 2 17.899377942515493 8.614299991693468 3.1757787506713546 0 0 0
265 1 14.744767658637244 14.736750092090457 2.121474495385761 0 0 0
273 1 17.356870673855713 14.805996440235518 2.1243263440422777 0 0 0
274 1 16.15657565703586 11.516251294873111 3.0092674120236307 0 0 0
278 1 14.842649725713319 12.816900543039633 3.9791345587632767 0 0 0
280 1 15.925024580833018 13.44096261262551 2.952223631694713 0 0 0
285 2 16.700660004818168 14.599514172298026 2.8130167827652865 0 0 0
288 2 15.3962071031318 12.623233601231375 3.2068369652153703 0 0 0
385 1 19.995605705139322 14.743460474525028 2.1509379605384873 0 0 0
386 1 18.684299042105124 11.450178018726893 3.0383798535156865 0 0 0
390 1 17.387092403694993 12.795007632624364 3.920730910977321 0 0 0
392 1 18.526286574397155 13.478773031449014 2.9857212515421603 0 0 0
398 1 19.90477877837069 12.758337749617072 3.849263787877319 0 0 0
401 2 19.290941670387397 14.602602446793188 2.7983204859622157 0 0 0
404 2 18.033483216183495 12.622559105796316 3.219665512959243 0 0 0
408 2 20.622188153439616 12.631954583779509 3.236885078384936 0 0 0
268 1 14.698242619010246 10.766884738599565 2.10526656863319 0 0 0
276 1 17.250294246027302 10.780026220418735 2.104473154916999 0 0 0
388 1 19.888654786450996 10.790931870488466 2.1902728126179416 0 0 0
275 1 16.199393919163455 15.446386229036904 3.0520877841542857 0 0 0
277 1 14.860991860681848 16.76664199711986 3.897879617171828 0 0 0
279 1 16.00960960647447 17.475355370548705 2.987569762885161 0 0 0
287 2 15.503367682446344 16.59881296280521 3.1877259077669216 0 0 0
292 1 14.8643331317213 18.7805729167341 2.075269305332836 0 0 0
298 1 16.32816123130639 19.51463591958585 2.935344640705968 0 0 0
300 1 17.50602101285926 18.743882651901924 2.1373351107432557 0 0 0
310 2 16.776467487118918 18.62140029698537 2.767726310801329 0 0 0
387 1 18.83139401700475 15.478554528837641 3.007860026043539 0 0 0
389 1 17.411770553411195 16.799848443587994 3.8571491756631198 0 0 0
391 1 18.59638297896933 17.46711482270279 2.953492181461528 0 0 0
397 1 20.03782777896256 16.840989482940756 3.9033132564882322 0 0 0
403 2 18.097968194969223 16.60565793362894 3.2076994529707634 0 0 0
407 2 20.66191857144846 16.64863570956627 3.1930945534071387 0 0 0
410 1 18.919018922005815 19.509206530962462 3.0450293090507543 0 0 0
412 1 20.024969964176364 18.771480405554115 2.1217296667830055 0 0 0
426 2 19.32200157115305 18.621917652436142 2.77975206671024 0 0 0
289 1 15.020317648133567 22.715760674073778 2.126898944091665 0 0 0
297 1 17.566269333694205 22.761369928492485 2.1323377840486533 0 0 0
299 1 16.401676974224785 23.531232672456873 2.966850539876328 0 0 0
302 1 15.002069486267951 20.798422081229738 3.9851796218050604 0 0 0
304 1 16.08911333381628 21.49777088198951 3.028716826209566 0 0 0
309 2 16.839860650141695 22.630408928163494 2.7566413944301362 0 0 0
312 2 15.588483574321128 20.64769144846002 3.226127141206381 0 0 0
409 1 20.18205894697051 22.72391511944786 2.189387344153731 0 0 0
411 1 19.03688621719122 23.536580873042972 3.026037742570838 0 0 0
414 1 17.53783291157434 20.760335007836883 3.9178949042210793 0 0 0
416 1 18.669620834216744 21.515516908094163 3.070857593927833 0 0 0
422 1 20.221796089163426 20.86437868175159 4.023434258074077 0 0 0
425 2 19.42696592954634 22.63741887109583 2.7749655942663742 0 0 0
428 2 18.188419194582693 20.64057716330492 3.2197484823116356 0 0 0
432 2 20.75119783443773 20.668315251644454 3.2359614994016104 0 0 0
301 1 15.060517271802384 24.848511517655883 3.8881523350756426 0 0 0
303 1 16.21697211527558 25.543817006689547 2.994290494303455 0 0 0
311 2 15.729280139272264 24.666484780221438 3.2114153471386824 0 0 0
316 1 15.06263348168405 26.829918785153897 2.0405854475179357 0 0 0
322 1 16.531775161975936 27.559478532402174 3.0245212164649833 0 0 0
324 1 17.665342720719195 26.86791628739035 2.1335425578820755 0 0 0
334 2 16.960267743604994 26.680999359684282 2.7804940954940784 0 0 0
413 1 17.589103780394264 24.81946567998686 3.855072190011872 0 0 0
415 1 18.785341129844323 25.500795014584874 3.0149330059078308 0 0 0
421 1 20.23516948612016 24.938940456316047 3.9430104335068354 0 0 0
427 2 18.28290552846564 24.655146014945597 3.202745501536307 0 0 0
431 2 20.860965078397076 24.704664470584643 3.2426086164131886 0 0 0
434 1 19.09954355247763 27.530823450599286 2.9959161601337145 0 0 0
436 1 20.247338799716854 26.785543824118136 2.1257479421206273 0 0 0
450 2 19.54558594072167 26.666745028831645 2.7685731787526664 0 0 0
313 1 15.176405151024857 30.876170482332352 2.094385119813063 0 0 0
321 1 17.83509011248808 30.857143917116 2.188362335145577 0 0 0
323 1 16.64246514772246 31.568544836437518 2.9839631567588722 0 0 0
325 1 15.288179228860404 32.83017190221281 3.9793041541493803 0 0 0
326 1 15.241213973659042 28.921309490119302 3.951365881066179 0 0 0
328 1 16.307619823751953 29.534503806953772 2.944675284377221 0 0 0
333 2 17.064087686795528 30.688024647886337 2.7342865125015656 0 0 0
335 2 15.911796476858633 32.700115396578894 3.25288682168304 0 0 0
336 2 15.814282906766707 28.709916910335657 3.2145229822937647 0 0 0
433 1 20.364863532378152 30.817148981770607 2.1197259461534417 0 0 0
435 1 19.28650255841797 31.59341619615977 3.0202963156746865 0 0 0
437 1 17.90385525965563 32.89687485540441 3.971531497850855 0 0 0
438 1 17.791753156934078 28.994517999666556 3.8867036109141506 0 0 0
440 1 18.919053154080977 29.521480759495205 2.8855121663433425 0 0 0
445 1 20.43508997542098 32.90355902353962 3.9367453962814105 0 0 0
446 1 20.250075099256858 28.81188194204408 3.866333719501523 0 0 0
449 2 19.665845520617903 30.69588850158383 2.759343848274748 0 0 0
451 2 18.48871571132494 32.71106400661427 3.222990921186336 0 0 0
452 2 18.379281613089642 28.704598952596488 3.1618549928190514 0 0 0
455 2 21.06962624203414 32.72752094181786 3.2281270121463863 0 0 0
456 2 20.968267366532917 28.69738280042131 3.2343617153210116 0 0 0
327 1 16.375816879179446 33.56470572472664 3.0698727630844207 0 0 0
340 1 15.344126038345767 34.7551981081573 2.148036729961476 0 0 0
346 1 16.735068394634123 35.581821588791314 2.9683624797531856 0 0 0
348 1 17.865125470144832 34.83054978653783 2.1267183027452363 0 0 0
350 1 15.398875872794564 36.93940612060982 3.960932668265959 0 0 0
358 2 17.147755949349506 34.704831838597016 2.764537311975108 0 0 0
360 2 15.982883866983771 36.72944178659368 3.2098008882275715 0 0 0
439 1 18.984221032299708 33.55951630996033 2.9859556588070526 0 0 0
458 1 19.286771799281233 35.561657429211394 3.021678869307472 0 0 0
460 1 20.404628796857867 34.825017028286126 2.084438237315613 0 0 0
462 1 17.867825755315284 36.849721153320615 3.9095247160774096 0 0 0
470 1 20.477021930504183 36.86715761461261 3.9137588211165224 0 0 0
474 2 19.74053912203376 34.697656554941204 2.7777133493344044 0 0 0
476 2 18.57012487834543 36.69912979357781 3.252268117827631 0 0 0
480 2 21.129994453244223 36.71892307654163 3.2144517188167057 0 0 0
337 1 15.353574911790469 38.90408286644961 2.1170774982142953 0 0 0
345 1 17.96929275940681 38.87263663585213 2.134895129537891 0 0 0
347 1 16.835006889698985 39.58875544367213 3.015058850099803 0 0 0
349 1 15.388687469334462 40.9376210473535 3.847373994257475 0 0 0
351 1 16.612679881762244 41.590070515702905 3.028505817125234 0 0 0
352 1 16.488865339084057 37.57209541336515 2.9712620323839722 0 0 0
357 2 17.246950177732934 38.71146309987361 2.764809587959739 0 0 0
359 2 16.091050577884907 40.73435853788649 3.233064603070888 0 0 0
457 1 20.50020511981913 38.81985325415772 2.1066758587521717 0 0 0