LAMMPS data file via write_data, version 29 Oct 2020, timestep = 40000

600 atoms
2 atom types

0.2566945399506153 26.773705460050124 xlo xhi
0.25540849190901405 26.63956831989759 ylo yhi
0.0 30.0 zlo zhi
0.6323421980634667 0.0 0.0 xy xz yz

Masses

1 1.008
2 15.999

Atoms # atomic

1 1 2.496115136107175 2.9934468607366576 1.7166182585973162 0 0 0
2 1 2.7563981080997126 1.8466456262479352 2.974448608801317 0 0 0
138 2 6.2590542076970035 6.517719059360148 3.6312430051876152 0 0 0
4 1 1.4120126841812126 0.5108472122216843 3.0202506276088923 0 0 0
5 2 2.0184848243460136 2.4631763279699666 2.3825143371029482 0 0 0
6 2 0.7695808030931147 1.2079128354893798 3.61664842575202 0 0 0
7 1 2.6320329568424845 5.540676275096083 1.7135491421903428 0 0 0
8 1 2.830042002886824 4.4553935954896415 3.0191311487430355 0 0 0
136 1 6.8502762490877895 5.8204150965388 2.9993850333474965 0 0 0
10 1 1.455428216448221 3.15356530670873 3.021621746813459 0 0 0
11 2 2.139570876892551 5.058845185179236 2.3859930702360765 0 0 0
12 2 0.8292585395998988 3.887283006430086 3.634518424166088 0 0 0
135 1 5.723312842947246 6.076259801795906 4.303268000657244 0 0 0
16 1 1.4923290039993298 5.78654425283929 2.9870951203342444 0 0 0
18 2 0.9272668637006894 6.506066210154694 3.607465928032653 0 0 0
61 1 5.303892132499262 2.8971598995606063 1.7523518735345165 0 0 0
62 1 5.389239135806104 1.856063194353685 3.0758260429002124 0 0 0
63 1 2.9829757635686263 0.7253852615073235 4.298309688118449 0 0 0
64 1 4.086131619586475 0.5364466697322172 3.0370486712523266 0 0 0
65 2 4.738008160774916 2.453576991439476 2.411949419099009 0 0 0
66 2 3.440896091164878 1.246033924297754 3.6302114469839672 0 0 0
67 1 5.294718035684795 5.602032144325596 1.6882709806288023 0 0 0
68 1 5.504899169924519 4.543326031926816 2.974705668118932 0 0 0
69 1 3.0546241022877556 3.342011465988232 4.226507003666541 0 0 0
70 1 4.209075552520811 3.181531304083296 2.9948390957674165 0 0 0
71 2 4.813591999274483 5.106797774352325 2.374554456251446 0 0 0
72 2 3.570680485654518 3.893522851154448 3.6309423234892706 0 0 0
75 1 3.0989665423129544 5.9957725447204355 4.297926018639521 0 0 0
76 1 4.177475470409759 5.806256379275533 3.0182733685413545 0 0 0
78 2 3.574414558340258 6.477903406198904 3.603650276714921 0 0 0
123 1 5.6196388159598545 0.7392830915512996 4.289781220313228 0 0 0
124 1 6.739699695948459 0.5147989163642863 3.019662835116721 0 0 0
126 2 6.130366566623788 1.219969207865678 3.633083632792806 0 0 0
129 1 5.7172315562519005 3.429621242016297 4.314830853364881 0 0 0
130 1 6.788612254343532 3.1874514791193644 3.0495357514360686 0 0 0
132 2 6.187926645440864 3.898382958690618 3.6177217560930917 0 0 0
15 1 0.42053219806450626 5.988645512900786 4.2429850138619845 0 0 0
9 1 0.33302037033723864 3.373140070248452 4.27736223074695 0 0 0
55 1 2.4732521161549115 0.3752132168120301 1.7853936668054087 0 1 0
115 1 5.176297741966853 0.2918582138694362 1.7367905062413795 0 1 0
13 1 2.629393822645577 8.20929315847141 1.6479191197002625 0 0 0
14 1 2.8940127085304703 7.116169953000901 2.959024598042109 0 0 0
17 2 2.197472026303155 7.730746838663547 2.3683837074674776 0 0 0
19 1 2.7675345926052364 10.89955342918824 1.7475946413105647 0 0 0
20 1 2.9495922174994895 9.733686196102768 3.0040013291057526 0 0 0
150 2 6.387494001923468 11.813297200020124 3.6271165393703657 0 0 0
22 1 1.6148407518905292 8.428617295152236 3.0145742371643554 0 0 0
23 2 2.259036891252555 10.378712575436317 2.388512792780959 0 0 0
24 2 1.000129273662067 9.156718848324674 3.6091569102405954 0 0 0
144 2 6.304673409306015 9.133002114839112 3.637665310359733 0 0 0
26 1 3.0259551670607716 12.393057387457903 3.0312050783677136 0 0 0
148 1 6.9486027605139284 11.103557046662887 3.0269358784449505 0 0 0
28 1 1.6912178889880831 11.09371452096442 2.9869223865590167 0 0 0
29 2 2.3182576202879766 12.960003969406657 2.40283310683982 0 0 0
30 2 1.0722075494349732 11.784496532088834 3.6317380262446775 0 0 0
73 1 5.30206975096868 8.24445032455452 1.7043091915830084 0 0 0
74 1 5.578191569205625 7.109940879094628 2.9755401950406553 0 0 0
77 2 4.854878244513581 7.719782079068572 2.3846189898909125 0 0 0
79 1 5.463206240606484 10.727043246316269 1.6721924147475031 0 0 0
80 1 5.606050184277242 9.741231283139301 3.0327341994768897 0 0 0
81 1 3.1768940155734144 8.691340112002207 4.293461711425598 0 0 0
82 1 4.223243456842619 8.440383792476277 2.9750713174189523 0 0 0
83 2 4.926180786702118 10.373269283886406 2.3993947634152644 0 0 0
84 2 3.6677687910178545 9.16154599309971 3.6120680118581103 0 0 0
147 1 5.840839022004737 11.318983607377005 4.234600146035526 0 0 0
86 1 5.716899741099641 12.418285417512068 2.9427617395333714 0 0 0
87 1 3.2830183458851727 11.23170974133092 4.268761645476242 0 0 0
88 1 4.380413534521698 11.141377372811842 2.9780921754314416 0 0 0
89 2 4.964437111661954 12.993860249102331 2.372252205017149 0 0 0
90 2 3.7394190416010344 11.767002992870868 3.6102947008836 0 0 0
141 1 5.801562965875392 8.63077070874232 4.2817147453972355 0 0 0
142 1 6.925655439802214 8.454374327156462 2.991831462970493 0 0 0
27 1 0.5668792527313435 11.272221555278712 4.2720744132381006 0 0 0
21 1 0.5192102901764399 8.687483243524955 4.293259473893103 0 0 0
25 1 2.764816357196052 13.425501822574168 1.681978904431092 0 0 0
31 1 2.893383458753635 16.090090016906288 1.6740346784400324 0 0 0
32 1 3.094478468071201 15.052329309993395 2.9885070597987324 0 0 0
168 2 6.560556416626731 19.70739065745734 3.617923908474016 0 0 0
34 1 1.7341771850504268 13.701508753429978 3.0066436908013996 0 0 0
35 2 2.3906388490005854 15.642468749479285 2.3750258370630846 0 0 0
36 2 1.1336215233795297 14.41238760785381 3.632011668124281 0 0 0
37 1 2.9781975953895223 18.751513314678164 1.6789635371453304 0 0 0
38 1 3.1536074122146185 17.638199382038678 2.9725968106721083 0 0 0
166 1 7.166613097031254 18.955655979373084 3.0480273043571815 0 0 0
40 1 1.8323072560538132 16.35626803690979 2.9628307788781916 0 0 0
41 2 2.4849803766508036 18.286922021129904 2.3747532295935887 0 0 0
42 2 1.2076377265723939 17.044556136632714 3.6101714514356185 0 0 0
165 1 5.994888685183532 19.27551047498335 4.277996876756962 0 0 0
46 1 1.9025723017171352 18.97168463093371 3.0310577038005992 0 0 0
48 2 1.2616174119632253 19.696199206009723 3.628187860274117 0 0 0
91 1 5.4955439363648715 16.130532845372194 1.719587860892237 0 0 0
92 1 5.719509689736087 15.032584753097668 3.0149320570043256 0 0 0
93 1 3.2407235388587434 13.904414041018724 4.25900172094843 0 0 0
94 1 4.371838462098757 13.689553907323956 2.9957867669365577 0 0 0
95 2 5.00895329157235 15.63267211792155 2.3866523453023527 0 0 0
96 2 3.7611866415378157 14.392432970681108 3.6093976743453715 0 0 0
97 1 5.539730010107321 18.844524474255813 1.713296765395005 0 0 0
98 1 5.812800070919813 17.70641889799124 2.9504871740935785 0 0 0
99 1 3.318601534241753 16.59424084705146 4.302922844384678 0 0 0
100 1 4.43183714567008 16.336886015026025 3.0673868137664972 0 0 0
101 2 5.09834221369536 18.29710986825146 2.379782495310136 0 0 0
102 2 3.8371245591233123 17.062396473973173 3.628332539156114 0 0 0
105 1 3.4054417738125426 19.23622402928475 4.275897328046075 0 0 0
106 1 4.464544263324409 18.961110176047043 2.9984419773987683 0 0 0
108 2 3.904047281878694 19.73178987655166 3.621199235363618 0 0 0
153 1 5.974072015109964 13.874295212562982 4.267398335464918 0 0 0
154 1 6.9770502746281595 13.713833632655232 3.009829448136362 0 0 0
156 2 6.441624228916066 14.42419578900533 3.641253240001408 0 0 0
159 1 5.957206173943527 16.597230945945526 4.273775064716454 0 0 0
160 1 7.067983210573121 16.381145214457042 2.992689844442183 0 0 0
162 2 6.488594505385401 17.075036577494664 3.618145969779723 0 0 0
45 1 0.7719956219785241 19.27957582578194 4.340369590399344 0 0 0
39 1 0.7707031727054094 16.508145231071033 4.283442345543517 0 0 0
33 1 0.6858127168701014 13.93706240554297 4.336819513601291 0 0 0
85 1 5.454664770887425 13.51024643109546 1.7076528953540475 0 0 0
43 1 2.9875107096240363 21.45858551273853 1.7596060191735896 0 0 0
44 1 3.172653662492829 20.30307741010361 2.988249653607045 0 0 0
47 2 2.481747639307386 20.930309864546246 2.3970923870861185 0 0 0
49 1 3.082321018253832 24.040237888772403 1.6898602663003932 0 0 0
50 1 3.27397541156468 22.97774614242985 3.0397123607643772 0 0 0
180 2 6.692449688527767 24.998076894898958 3.637538809756986 0 0 0
52 1 1.922836412141447 21.6523292085782 3.018677810533297 0 0 0
53 2 2.6014558198491398 23.575865628214792 2.3862449687164395 0 0 0
54 2 1.3054249063822958 22.361476711194072 3.60309677668298 0 0 0
177 1 6.2079248470283375 24.513754703767113 4.319154818996609 0 0 0
56 1 3.311344824915696 25.566513619870513 3.0108886137938975 0 0 0
178 1 7.290408046229522 24.315149368236128 3.058037458874699 0 0 0
58 1 1.958983429730887 24.262260858484552 2.994662948974179 0 0 0
59 2 2.609495534631348 26.18604433743227 2.390629674459997 0 0 0
60 2 1.3905746925361882 24.964973825563696 3.6226704995732444 0 0 0
103 1 5.692587337711695 21.369249697517027 1.6807635942633443 0 0 0
104 1 5.869315717802242 20.281640443142905 2.957768432546719 0 0 0
107 2 5.179266403837173 20.92684229631506 2.3752669403633386 0 0 0
109 1 5.742808280114298 24.05344342371079 1.6895050741773328 0 0 0
110 1 5.913668220045993 22.92163625334566 3.0642803767636853 0 0 0
111 1 3.5557194464710347 21.834323865405338 4.27137798495501 0 0 0
112 1 4.611988317236 21.640933043750934 2.9820234224263946 0 0 0
113 2 5.249110567834761 23.580164249386655 2.3801379088701933 0 0 0
114 2 4.021245627639175 22.359412012785754 3.618595771209331 0 0 0
174 2 6.631875723561252 22.336777250781573 3.6209958703143923 0 0 0
116 1 5.992173647031907 25.599085470823105 3.0218531073484076 0 0 0
117 1 3.5531927370943963 24.518713996301898 4.3022894334193476 0 0 0
118 1 4.63310563349458 24.23545702624383 2.9425586140450175 0 0 0
119 2 5.292631740198862 26.20780542452652 2.4080355994274516 0 0 0
120 2 4.020076800868963 24.99531859975494 3.621351096485554 0 0 0
171 1 6.137049416528552 21.80285228541556 4.256308333717665 0 0 0
172 1 7.239685608103937 21.65608222177076 2.925322873516205 0 0 0
57 1 0.924859818143893 24.517252449553837 4.355818855232592 0 0 0
51 1 0.7757738887168486 21.912338443745355 4.266783770932513 0 0 0
121 1 7.858305652446059 2.977099481794448 1.7090112575953407 0 0 0
122 1 8.107906214956541 1.8787081035226956 3.0073511491763254 0 0 0
125 2 7.355828424110357 2.468519719825438 2.3670694147690194 0 0 0
127 1 7.910092535157337 5.5807883300951415 1.6581909585265626 0 0 0
128 1 8.119073619256369 4.478906856598738 2.951852142058746 0 0 0
131 2 7.4497490370026425 5.1343979272438816 2.3809048372944526 0 0 0
181 1 10.516758123078628 2.901835340008235 1.6741665869580358 0 0 0
182 1 10.752999234419637 1.837402062883767 2.9345468591051893 0 0 0
183 1 8.247727384029938 0.7851849626947792 4.31834075448279 0 0 0
184 1 9.344616064909301 0.4872299912334854 2.9550282899772236 0 0 0
185 2 10.035420781592494 2.465129851030671 2.3796933333051626 0 0 0
186 2 8.752812126634756 1.2149182980472464 3.613761171582174 0 0 0
187 1 10.565545266769693 5.617296879536648 1.7013845581664016 0 0 0
188 1 10.775037568709502 4.470011833846064 2.9679570567010787 0 0 0
189 1 8.352700276485985 3.3874212550581024 4.297151314799461 0 0 0
190 1 9.365530001825578 3.1494733129741395 2.9457721584840555 0 0 0
191 2 10.091518748992064 5.10967103567559 2.374399627088912 0 0 0
192 2 8.814071376228005 3.876366652068482 3.6088650371964826 0 0 0
195 1 8.353152593749448 6.072268256146774 4.285235673535695 0 0 0
196 1 9.499834342150193 5.802268914912165 2.95508285263607 0 0 0
198 2 8.890544605906134 6.5302473096733475 3.6286822804502425 0 0 0
241 1 13.191184976261432 2.953766966797626 1.7110717398695632 0 0 0
242 1 13.389860585031089 1.8826994039041738 3.069462698366217 0 0 0
243 1 10.940568556643912 0.835545983347926 4.312133814241214 0 0 0
244 1 12.059150787857705 0.4973664424435158 2.988510139423896 0 0 0
245 2 12.697728558108555 2.4739080645513964 2.3967140897421246 0 0 0
246 2 11.428993556142721 1.2477264361035205 3.592714654724681 0 0 0
247 1 13.249701913865247 5.571989202235899 1.6949679418595138 0 0 0
248 1 13.417389363650663 4.534726859582603 2.9958393079376657 0 0 0
249 1 10.932681030631564 3.401807373451718 4.260683304357129 0 0 0
250 1 12.074459422052582 3.1734058561362097 2.998066827088795 0 0 0
251 2 12.744738112406697 5.129633885327687 2.3844956010702965 0 0 0
252 2 11.44887155496843 3.891565313339788 3.6109805342608086 0 0 0
255 1 11.068386489620377 5.9975619755993 4.272659023074857 0 0 0
256 1 12.129227207387908 5.848558675778102 2.988781006518419 0 0 0
258 2 11.533195032819886 6.524605467036936 3.6157658568212385 0 0 0
295 1 13.119872909356092 0.2580463779231694 1.7203476950052536 0 1 0
175 1 7.797995104020163 0.2681476061588292 1.7264217839670888 0 1 0
235 1 10.469249151487569 0.3005865907441929 1.6891079960548376 0 1 0
133 1 7.99822691673313 8.199291731354867 1.7122253958716955 0 0 0
134 1 8.186003713616657 7.127023814722244 3.027803069486129 0 0 0
137 2 7.488867072606008 7.745599505847121 2.3831711540937692 0 0 0
139 1 8.095344012289598 10.858644165418902 1.7239908646699025 0 0 0
140 1 8.287159518161836 9.743710590360275 2.9782189276060516 0 0 0
143 2 7.561681589835079 10.39722209246605 2.374399228421943 0 0 0
269 2 12.870160082999224 12.987979461087866 2.388760323225156 0 0 0
146 1 8.29802521322019 12.383035662144309 2.9963150463434802 0 0 0
149 2 7.600171250403905 13.014271142208662 2.372214554249987 0 0 0
193 1 10.619932843048451 8.18839668869574 1.7167673645989379 0 0 0
194 1 10.84406716180806 7.112514130399926 3.022145871753286 0 0 0
197 2 10.113587635806793 7.702670356993527 2.3860880652054166 0 0 0
199 1 10.639609739859315 10.843718017637297 1.6454507765017077 0 0 0
200 1 10.932709558714425 9.760578949733633 2.952155551957436 0 0 0
201 1 8.401029721045132 8.751709687297987 4.302412181550941 0 0 0
202 1 9.5272489513366 8.410394668239631 2.963975100001709 0 0 0
203 2 10.176727818318945 10.391792303218404 2.3740051578662733 0 0 0
204 2 8.933497657587711 9.150402791920754 3.603734140062193 0 0 0
268 1 12.241659313887668 11.05532672423472 2.993488701745187 0 0 0
206 1 10.957577448827903 12.363999522619892 3.030015959523801 0 0 0
207 1 8.506547915272076 11.240011262628531 4.230394564486649 0 0 0
208 1 9.592181378752167 11.096973565730973 3.00498708500873 0 0 0
209 2 10.304880909688654 13.008548128498282 2.3864576631786742 0 0 0
210 2 8.99871032023282 11.795947131500101 3.6219429319049676 0 0 0
253 1 13.218149301584855 8.300977036414936 1.732671875911035 0 0 0
254 1 13.526056673681028 7.180613153594101 3.0078121298386176 0 0 0
257 2 12.798909498561402 7.7335880509809805 2.3971467611461232 0 0 0
259 1 13.370682529142956 10.899514146896314 1.7221014141355564 0 0 0
260 1 13.557484793966212 9.756699817882172 2.9516853544635433 0 0 0
261 1 11.003108516312203 8.701758126269276 4.241279739256904 0 0 0
262 1 12.117277346063005 8.372000390242926 3.0549714351711965 0 0 0
263 2 12.876324341615044 10.386198918561881 2.3736421389722113 0 0 0
264 2 11.57203092226821 9.145020456884938 3.602935510371207 0 0 0
270 2 11.649225272708044 11.75665113657066 3.623657704654736 0 0 0
266 1 13.581189946929463 12.392163644095325 3.0623077356684 0 0 0
267 1 11.154315104515351 11.273027636728642 4.298458156281182 0 0 0
321 1 13.7151339353739 8.709647115144714 4.28126764504934 0 0 0
151 1 8.152531605130056 16.065020858267687 1.6409999723271944 0 0 0
152 1 8.382342631163782 15.024506086970895 2.9633438925822606 0 0 0
155 2 7.675149177296642 15.6455739259075 2.371551256868165 0 0 0
157 1 8.273300553787596 18.787212886226897 1.7372722163381775 0 0 0
158 1 8.423761378808866 17.645331012239552 2.939734048095662 0 0 0
161 2 7.742572001927484 18.286858562667497 2.3843981037398074 0 0 0
211 1 10.82139279802847 16.03724108833042 1.6471657119065855 0 0 0
212 1 11.04590830336547 15.0183959687189 2.994373833065008 0 0 0
213 1 8.61008343038558 13.990256629451636 4.336940484315334 0 0 0
214 1 9.669456117670784 13.696349700360704 3.0418729995276736 0 0 0
215 2 10.337088162497226 15.605049888489448 2.367807515063266 0 0 0
216 2 9.089729081732038 14.434190790665236 3.6284941917732594 0 0 0
217 1 10.856187949295409 18.80413889122795 1.6653328198441173 0 0 0
218 1 11.108687682165959 17.663745867083314 3.0239441585232445 0 0 0
219 1 8.642878735693287 16.5554220382403 4.225987421451483 0 0 0
220 1 9.732234461619171 16.366308763099596 2.9827719380385154 0 0 0
221 2 10.395326214796329 18.315038513432505 2.3671522021725355 0 0 0
222 2 9.161617153572273 17.068655019235976 3.5917086519947743 0 0 0
225 1 8.678142144138747 19.20196795183697 4.298260517639998 0 0 0
226 1 9.781365684105772 18.981846589001947 2.9508218541558984 0 0 0
228 2 9.163116318170928 19.67218104709194 3.610970840493158 0 0 0
271 1 13.522609015238382 16.11292779501278 1.726316295800991 0 0 0
272 1 13.677796978019416 15.001039008330215 3.0818290766840812 0 0 0
273 1 11.270718172086973 13.943361628754598 4.294100247936486 0 0 0
274 1 12.276939073125021 13.704185804501561 2.9593874159385547 0 0 0
275 2 12.982041061828085 15.650907798852819 2.387874472642693 0 0 0
276 2 11.76934894643151 14.444489804579309 3.6387139863830584 0 0 0
277 1 13.58456248771965 18.77609188444984 1.7117872134865335 0 0 0
278 1 13.775527724124682 17.731297548049305 2.979480874869933 0 0 0
279 1 11.33313773312222 16.482148620479123 4.163367136708819 0 0 0
280 1 12.411833584174204 16.42273417787728 2.9124818596179 0 0 0
281 2 13.054136625120522 18.293620658457634 2.3677778022687597 0 0 0
282 2 11.808074729715777 17.081640999529775 3.585466443336987 0 0 0
285 1 11.41012545777312 19.256247520503926 4.3011676411706885 0 0 0
286 1 12.474448043952938 19.043971346940197 2.9891413209375473 0 0 0
288 2 11.898238149641607 19.735878151679515 3.616694197352628 0 0 0
265 1 13.374643452422173 13.498510914417858 1.7427625484338753 0 0 0
145 1 8.089349750231424 13.534989811627153 1.7279099185881912 0 0 0
205 1 10.803207332518012 13.48652269518129 1.7163333813740707 0 0 0
163 1 8.294479286511253 21.36472173908654 1.6500452474432803 0 0 0
164 1 8.503132939182942 20.2977166340564 3.0814189786795287 0 0 0
167 2 7.819845622697503 20.948480874790597 2.380746046865828 0 0 0
169 1 8.35103998980821 24.0873494795063 1.699312690429046 0 0 0
170 1 8.558758501328684 22.965727503317574 2.9508693743366607 0 0 0
173 2 7.8896537155593585 23.579197536861948 2.384967531407711 0 0 0
298 1 12.561744638978771 24.239768629058595 3.028602537486563 0 0 0
176 1 8.628863510221947 25.58320933238921 3.0321468926245743 0 0 0
179 2 7.907159082298079 26.16331881275405 2.3835257911696903 0 0 0
223 1 10.925502854138923 21.47620745835492 1.7815103997264496 0 0 0
224 1 11.12517411705088 20.261103388893353 2.937244754758627 0 0 0
227 2 10.421455649594062 20.915297223984467 2.392111191904704 0 0 0
229 1 10.984712019999092 24.080930607398663 1.6769791138404773 0 0 0
230 1 11.20992722074078 23.020416708573492 3.0075727769545844 0 0 0
231 1 8.802104202868119 21.944585206153597 4.368263287678313 0 0 0
232 1 9.841632618990273 21.586116373008018 3.0566846050078538 0 0 0
233 2 10.513377713334888 23.591140793177743 2.369053184376598 0 0 0
234 2 9.278575417662717 22.351223207557865 3.6310843761299822 0 0 0
297 1 11.475755345421948 24.56202423121735 4.35103126962947 0 0 0
236 1 11.33937983705507 25.582401897053096 3.019750436025016 0 0 0
237 1 8.895342022605455 24.41505941935302 4.237387802534424 0 0 0
238 1 9.929550234613247 24.33471580263774 2.931564211733413 0 0 0
239 2 10.611867686379743 26.220397448045823 2.3812935948300016 0 0 0
240 2 9.354249319728511 24.999301615484278 3.623825980861436 0 0 0
283 1 13.614404205036585 21.480395410354667 1.7345147990832603 0 0 0
284 1 13.817203846151413 20.35642144923888 3.00807701730415 0 0 0
287 2 13.155337895645038 20.937498103306957 2.3964494577779156 0 0 0
289 1 13.62422601247583 24.14511293892015 1.7273209035552788 0 0 0
290 1 13.886793478768663 22.997960460417914 2.971991905875278 0 0 0
291 1 11.349201364503323 21.90551232464729 4.239678330885998 0 0 0
292 1 12.504101993266751 21.62443557872087 2.9842906838225223 0 0 0
293 2 13.151319048504483 23.57995815128617 2.365352837399397 0 0 0
294 2 11.901731961302112 22.358299092332068 3.598406597473912 0 0 0
299 2 13.232868345632536 26.160314619630718 2.3861009167951495 0 0 0
300 2 11.978578186961988 24.960917814244745 3.6385188238114354 0 0 0
296 1 13.953127192433318 25.590360025746044 3.0049310413658046 0 0 0
351 1 14.003518401154416 21.926360412699886 4.27605627556975 0 0 0
301 1 15.777172772025908 2.9760810795234183 1.6950162916985616 0 0 0
302 1 16.03004552464971 1.8767528153572777 3.010709850919956 0 0 0
438 2 19.519129965046663 6.5198728430465955 3.5960952685733765 0 0 0
304 1 14.700613791620906 0.5195703263761114 2.9838992767207384 0 0 0
305 2 15.333094345573768 2.4524971247743235 2.375366071306537 0 0 0
306 2 14.086117424346549 1.2040970901044243 3.6199465441339034 0 0 0
307 1 15.912617877433144 5.497098080290867 1.6384564183271682 0 0 0
308 1 16.07869026339683 4.455900778846677 3.0112447436700855 0 0 0
436 1 20.16484934432198 5.77017721597992 2.965882708972688 0 0 0
310 1 14.715365691107923 3.1605184302325666 3.042112002311821 0 0 0
311 2 15.415743448562118 5.075186953225249 2.3598430969638575 0 0 0
312 2 14.133108873721946 3.8797947160583335 3.63227144833222 0 0 0
435 1 19.00696621681561 6.05901874507378 4.261973368749382 0 0 0
316 1 14.799726586344356 5.835081690879886 2.9530996230885207 0 0 0
318 2 14.22731596273541 6.5034407563145695 3.6048598270129055 0 0 0
361 1 18.469208377211444 2.8869830319764547 1.6398083478581542 0 0 0
362 1 18.712249251490075 1.82806583283518 2.9394473470477944 0 0 0
363 1 16.2239277665587 0.7251950722488874 4.255262203528127 0 0 0
364 1 17.348718406406594 0.5145460358529158 2.9598332779584897 0 0 0
365 2 18.01144059201447 2.448103519013319 2.3687997493438337 0 0 0
366 2 16.74897304665679 1.2313412105858839 3.625798376421282 0 0 0
367 1 18.53110588746074 5.615516544189177 1.712783615680034 0 0 0
368 1 18.736727770298252 4.47508586828895 2.957794186905324 0 0 0
369 1 16.383968017384433 3.3763209775765652 4.321659337848802 0 0 0
370 1 17.42134643242103 3.16073816053281 2.9854364365710824 0 0 0
371 2 18.043611986602297 5.098913011426761 2.362621312239093 0 0 0
372 2 16.8067562133935 3.86667557071789 3.607963072789427 0 0 0
375 1 16.355215748427366 6.030981337455737 4.290820812113521 0 0 0
376 1 17.454653955381907 5.810612575329982 3.017556271598333 0 0 0
378 2 16.874338014062584 6.496952094273395 3.6187159464187344 0 0 0
423 1 18.861190343171934 0.7397536345947424 4.266828678521455 0 0 0
424 1 20.009346520487135 0.5172458546393945 3.0050203770536594 0 0 0
426 2 19.374284023419918 1.216622424495192 3.603284450072242 0 0 0
429 1 18.98691900982819 3.350620082827576 4.255869692381582 0 0 0
430 1 20.04586646952348 3.2191676743412123 2.9592089749272157 0 0 0
432 2 19.450395378394166 3.886262538161721 3.604049160598222 0 0 0
315 1 13.722289141719232 5.991643859739276 4.260133178896216 0 0 0
309 1 13.63358580069942 3.4294067220155675 4.3224508453784525 0 0 0
303 1 13.55032238239774 0.7123255632892 4.249711228148579 0 0 0
355 1 15.82329293526969 0.29948279072006784 1.7523852471030872 0 1 0
313 1 15.94988301851274 8.160482981641628 1.6786051895659835 0 0 0
314 1 16.154642029977282 7.133476378440512 2.977454776098863 0 0 0
317 2 15.450290084951256 7.718959918654496 2.387230064775302 0 0 0
319 1 15.984723532430504 10.827696797471992 1.6790884106894335 0 0 0
320 1 16.261206203652044 9.727116934976136 2.9772621952941076 0 0 0
450 2 19.644218533980055 11.797337349779397 3.6056663009859746 0 0 0
322 1 14.850618043560965 8.40416952579935 2.9996476564426096 0 0 0
323 2 15.494619141743904 10.362043257969876 2.374223255006102 0 0 0
324 2 14.253226011121047 9.139430027896971 3.6120972802522537 0 0 0
447 1 19.084225503833604 11.35840372814866 4.253091365837223 0 0 0
326 1 16.22952469227818 12.43729789112831 3.02978376576275 0 0 0
448 1 20.20671475730626 11.070481392926133 2.935237031830357 0 0 0
328 1 14.871787484984864 11.026774715623741 2.9840625231776348 0 0 0
329 2 15.54083271364253 12.997179434331585 2.3715087138201207 0 0 0
330 2 14.295006774260267 11.789914857308885 3.6220145702570052 0 0 0
373 1 18.522747300086312 8.264493298845622 1.6788045391666204 0 0 0
374 1 18.876107246330502 7.151654251585642 3.0116101611858968 0 0 0
377 2 18.11448999101877 7.727655906823415 2.368258463461924 0 0 0
379 1 18.659943573268816 10.79570045603311 1.6554626016446101 0 0 0
380 1 18.871159133375617 9.752977190062262 3.0015235143651284 0 0 0
381 1 16.40558768204547 8.715275672166902 4.292909847476427 0 0 0
382 1 17.550958616568572 8.428822351727105 3.0101171685425094 0 0 0
383 2 18.17682787953468 10.389353019651093 2.3838883351715756 0 0 0
384 2 16.947125871944003 9.16194417146715 3.6205217465765838 0 0 0
444 2 19.553782403877676 9.127878073936703 3.594342504699589 0 0 0
386 1 18.869738731780767 12.37089798410083 2.993131655792434 0 0 0
387 1 16.444911125539562 11.235793148329016 4.249737406733461 0 0 0
388 1 17.554338735233763 11.121245136689588 2.9750519654531327 0 0 0
389 2 18.216624306537568 12.993201269501975 2.398156652046693 0 0 0
390 2 16.931441891267404 11.78537246867277 3.6258099510691215 0 0 0
441 1 19.021254332806297 8.680712878030969 4.262769180530233 0 0 0
442 1 20.18077918752266 8.42152695322004 2.9727016577859544 0 0 0
327 1 13.812604269158602 11.313076644121763 4.317112045881437 0 0 0
331 1 16.125570963238857 16.085154950030592 1.6548665732291816 0 0 0
332 1 16.31245251966446 15.01579025510735 2.932218075544059 0 0 0
468 2 19.828152981686426 19.73276178078337 3.6160628596094666 0 0 0
334 1 14.95457699456408 13.69441518366417 2.9566688892425237 0 0 0
335 2 15.612556332566403 15.651374444329509 2.369888939819696 0 0 0
336 2 14.376015664215602 14.420156550975255 3.6197393470255417 0 0 0
337 1 16.217874002512417 18.701476804034975 1.6730012356222033 0 0 0
338 1 16.36601090693739 17.710733733643174 3.0116126062240864 0 0 0
466 1 20.406153437339555 18.982461222836726 3.0324681074134787 0 0 0
340 1 15.037347855035941 16.381553571922204 3.0112244099194867 0 0 0
341 2 15.726255652792087 18.26045794734621 2.3815783159786768 0 0 0
342 2 14.461986098064726 17.09839446755751 3.6133410081710218 0 0 0
465 1 19.3602033744362 19.26007165662424 4.319291399856655 0 0 0
346 1 15.095096257192537 19.018105038077877 2.9734313131915573 0 0 0
348 2 14.53874247905529 19.713390642622635 3.6000208347194755 0 0 0
391 1 18.721806618299272 16.147287743975866 1.6902938625857313 0 0 0
392 1 19.00235549553038 15.04209574454481 2.948177873343283 0 0 0
393 1 16.462567463188947 13.983127791826856 4.308042234165024 0 0 0
394 1 17.5928982772189 13.707979628260915 3.0614163785186435 0 0 0
395 2 18.26549921081266 15.629587420137849 2.374002662704126 0 0 0
396 2 16.989091615522835 14.395167756701232 3.606286477754604 0 0 0
397 1 18.9219581112531 18.701470003304372 1.738460929556486 0 0 0
398 1 19.0201998879074 17.609000514583002 3.0180681648535086 0 0 0
399 1 16.522278461538473 16.56067389129057 4.27006864699894 0 0 0
400 1 17.643620547535484 16.3426970064231 3.025901574975632 0 0 0
401 2 18.37570830089109 18.269072976404786 2.395340243553414 0 0 0
402 2 17.08663783669193 17.036003905096386 3.6368580476924826 0 0 0
405 1 16.698190557765567 19.208900648832937 4.30969917574676 0 0 0
406 1 17.759639117424257 19.02738961892412 3.026973824364277 0 0 0
408 2 17.152095097656765 19.69227599758976 3.6021874160913345 0 0 0
453 1 19.149785759084192 13.926590588824245 4.289949004452002 0 0 0
454 1 20.293044711641095 13.680146612077136 2.9938538947956888 0 0 0
456 2 19.64657526999495 14.385952503392598 3.6065686407014077 0 0 0
459 1 19.26985038813096 16.48919234846535 4.270374086327369 0 0 0
460 1 20.339263066960118 16.327522181533674 2.9405284843075403 0 0 0
462 2 19.728137773131547 17.024230631462856 3.6159104012604715 0 0 0
345 1 14.045842896234232 19.23948270789259 4.283735902559542 0 0 0
339 1 13.973405238433408 16.666078881352703 4.326712267119401 0 0 0
333 1 13.906635093362485 13.949185804683227 4.312403697301597 0 0 0
385 1 18.7347953716035 13.473541566781376 1.7413845050487202 0 0 0
325 1 16.051830165311834 13.479725657566087 1.7001704630403 0 0 0
343 1 16.24135676070184 21.41867883954184 1.7126820656077801 0 0 0
344 1 16.439511521862457 20.354597857327192 3.042988706299277 0 0 0
347 2 15.769923523571899 20.921230739747777 2.3899659672069036 0 0 0
349 1 16.34977110665707 24.035419089749553 1.7053078378573396 0 0 0
350 1 16.545724457982416 22.97490718713042 3.014180331287262 0 0 0
480 2 19.955948171824478 24.99803995736211 3.6227103537287286 0 0 0
352 1 15.133788061402607 21.635211622435378 3.0228900502179665 0 0 0
353 2 15.836678326959563 23.561867609513683 2.37644069303381 0 0 0
354 2 14.571014251130883 22.368792736050622 3.6193531317857977 0 0 0
474 2 19.874726440892612 22.339685238266902 3.604112270558358 0 0 0
356 1 16.584922601115938 25.563429593392407 3.007488503862694 0 0 0
478 1 20.548439008727353 24.253278537787466 2.9695953131040294 0 0 0
358 1 15.271883288900485 24.28182492630598 2.95915660766878 0 0 0
359 2 15.89241088261123 26.18499222424599 2.3613250333823252 0 0 0
360 2 14.64982787876021 24.986235850920117 3.613263188180153 0 0 0
403 1 18.894956991165405 21.444923499517877 1.7117808485429034 0 0 0
404 1 19.11572342561694 20.32785248457194 2.9530136784012857 0 0 0
407 2 18.41128610810591 20.94612959101724 2.3920634211606826 0 0 0
409 1 19.04856149780741 24.07710270150507 1.7679353706751428 0 0 0
410 1 19.15689244765035 22.96008694740403 3.0188293466176184 0 0 0
411 1 16.72687636389234 21.890863714916534 4.310033199434381 0 0 0
412 1 17.833433898995587 21.598133055859513 3.0044781632656106 0 0 0
413 2 18.495007562211505 23.561732544363558 2.3748768536333187 0 0 0
414 2 17.220481219404313 22.375026474756893 3.631317884624015 0 0 0
477 1 19.46682988324416 24.533607538081867 4.309283605988811 0 0 0
416 1 19.28101066930365 25.586699235768563 3.021082276988194 0 0 0
417 1 16.822252889070647 24.462528760137467 4.290835484676165 0 0 0